Title: ** inverting amplifier with opamp (lm741) -- simulation circuit **
Date: Mon Jun  1 23:23:11  2020
Plotname: Transient Analysis
Flags: real
No. Variables: 43
No. Points: 1015
Variables:
	0	time	time
	1	i(a$poly$e.xu1.eos)	current
	2	i(e.xu1.e1)	current
	3	i(e.xu1.eh)	current
	4	i(l.xu1.l2)	current
	5	i(l.xu1.l3)	current
	6	neg	voltage
	7	out	voltage
	8	i(v.xu1.v2)	current
	9	i(v.xu1.v3)	current
	10	i(v.xu1.v4)	current
	11	i(v.xu1.v5)	current
	12	i(v.xu1.v6)	current
	13	i(v.xu1.v7)	current
	14	i(vc)	current
	15	vcc	voltage
	16	i(ve)	current
	17	vee	voltage
	18	vin	voltage
	19	vout	voltage
	20	vs	voltage
	21	i(vsource)	current
	22	xu1.3	voltage
	23	xu1.4	voltage
	24	xu1.5	voltage
	25	xu1.6	voltage
	26	xu1.7	voltage
	27	xu1.8	voltage
	28	xu1.9	voltage
	29	xu1.10	voltage
	30	xu1.15	voltage
	31	xu1.16	voltage
	32	xu1.17	voltage
	33	xu1.20	voltage
	34	xu1.21	voltage
	35	xu1.22	voltage
	36	xu1.23	voltage
	37	xu1.24	voltage
	38	xu1.25	voltage
	39	xu1.26	voltage
	40	xu1.27	voltage
	41	xu1.49	voltage
	42	xu1.98	voltage
Values:
 0	0.000000000000000e+00
	-7.986295288082349e-08
	1.091960821000704e-06
	7.182857864073135e-15
	-1.581148264137114e-11
	1.091960821398552e-06
	9.999989021516704e-04
	0.000000000000000e+00
	8.367617155575522e-12
	8.374382844345141e-12
	-1.807970749477402e-13
	-1.811949482422370e-13
	-7.567618898526742e-05
	-7.676814980626808e-05
	-1.576608452275904e-03
	1.000000000000000e+01
	1.575676197359650e-03
	-1.000000000000000e+01
	9.900979229224459e-06
	3.183920544948774e-03
	0.000000000000000e+00
	9.900979229224459e-07
	4.999994510758352e-04
	-6.957045151755875e-01
	9.974191292412632e+00
	9.974191275540338e+00
	1.000015811482641e-03
	8.369999999999999e+00
	3.382844384759665e-03
	-8.369999999999999e+00
	3.382843969120586e-03
	1.581148264137114e-08
	0.000000000000000e+00
	1.831839205449488e-01
	-1.768160794550512e-01
	3.183920544948774e-03
	3.382843969120586e-03
	5.274748693752270e-03
	1.463640223963884e-03
	6.531839205449488e-01
	-6.468160794550513e-01
	0.000000000000000e+00
	0.000000000000000e+00

 1	1.000000000000000e-06
	-7.755473945166480e-08
	-3.630976646582906e-06
	-1.224974437118126e-14
	-3.964890749675581e-11
	-3.630976643182990e-06
	2.507599373668267e-03
	0.000000000000000e+00
	8.376462481447573e-12
	8.365537518473090e-12
	-1.816575030120913e-13
	-1.803345206835202e-13
	-7.802190312100088e-05
	-7.439092647441793e-05
	-1.574231228931942e-03
	1.000000000000000e+01
	1.578021911486539e-03
	-1.000000000000000e+01
	6.245762335936271e-03
	-4.754353922143588e-03
	6.283143965558951e-03
	-3.738162962268012e-06
	1.253799686834134e-03
	-6.949443803878831e-01
	9.973489267384792e+00
	9.974893300568967e+00
	1.012685402793278e-03
	8.369999999999999e+00
	-5.462481487164439e-03
	-8.369999999999999e+00
	-5.415801589745294e-03
	1.268540279327832e-05
	1.264575388578157e-05
	1.752456456055627e-01
	-1.847543543944373e-01
	-4.754354394437334e-03
	-5.415801589745294e-03
	-3.465254011720272e-03
	-7.275574751605743e-03
	6.452456456055626e-01
	-6.547543543944374e-01
	0.000000000000000e+00
	0.000000000000000e+00

 2	1.008731154756488e-06
	-7.753508852082141e-08
	-3.672435038076392e-06
	-1.241849675506618e-14
	-3.985349898518291e-11
	-3.672435034666114e-06
	2.520538784124397e-03
	0.000000000000000e+00
	8.376540388635853e-12
	8.365459611284810e-12
	-1.816650227308017e-13
	-1.803269998565443e-13
	-7.807716344081465e-05
	-7.440472840273822e-05
	-1.574245030860184e-03
	1.000000000000000e+01
	1.578077171806274e-03
	-1.000000000000000e+01
	6.300205667643330e-03
	-4.824331294704488e-03
	6.338002336478519e-03
	-3.779666883518872e-06
	1.260269392062199e-03
	-6.949270305808157e-01
	9.973483110870637e+00
	9.974899457083113e+00
	1.012470716040956e-03
	8.369999999999999e+00
	-5.540388675443264e-03
	-8.369999999999999e+00
	-5.493298736424406e-03
	1.247071604095653e-05
	1.243086254197135e-05
	1.751756682304627e-01
	-1.848243317695373e-01
	-4.824331769537343e-03
	-5.493298736424406e-03
	-3.541369650404040e-03
	-7.353416946492860e-03
	6.451756682304627e-01
	-6.548243317695374e-01
	0.000000000000000e+00
	0.000000000000000e+00

 3	1.026193464269463e-06
	-7.749519040583320e-08
	-3.755757648850973e-06
	-1.276076765149877e-14
	-4.025620370455942e-11
	-3.755757645424523e-06
	2.546007886953131e-03
	0.000000000000000e+00
	8.376697565388279e-12
	8.365302434532382e-12
	-1.816801994494277e-13
	-1.803118231075833e-13
	-7.811976978641989e-05
	-7.436401213756893e-05
	-1.574204314594811e-03
	1.000000000000000e+01
	1.578119778151722e-03
	-1.000000000000000e+01
	6.409088217622060e-03
	-4.965507413485533e-03
	6.447719020928749e-03
	-3.863080330668983e-06
	1.273003943476565e-03
	-6.949141192106423e-01
	9.973470726780233e+00
	9.974911841173528e+00
	1.012077503503733e-03
	8.369999999999999e+00
	-5.697565427867812e-03
	-8.369999999999999e+00
	-5.649650584729591e-03
	1.207750350373257e-05
	1.203724730002801e-05
	1.750344921070336e-01
	-1.849655078929664e-01
	-4.965507892966432e-03
	-5.649650584729591e-03
	-3.696656340069094e-03
	-7.508750888168814e-03
	6.450344921070336e-01
	-6.549655078929665e-01
	0.000000000000000e+00
	0.000000000000000e+00

 4	1.061118083295414e-06
	-7.741929006016240e-08
	-3.924967520862240e-06
	-1.346685433618229e-14
	-4.102079762327035e-11
	-3.924967517397025e-06
	2.594364710702359e-03
	0.000000000000000e+00
	8.377020105894752e-12
	8.364979894025911e-12
	-1.817110195232947e-13
	-1.802810029700194e-13
	-7.820635948677139e-05
	-7.428139196590920e-05
	-1.574121694422712e-03
	1.000000000000000e+01
	1.578206367851751e-03
	-1.000000000000000e+01
	6.626827527482986e-03
	-5.255570333882085e-03
	6.667152155650793e-03
	-4.032462816780619e-06
	1.297182355351179e-03
	-6.948896136426956e-01
	9.973445900647937e+00
	9.974936667305853e+00
	1.011231919440991e-03
	8.369999999999999e+00
	-6.020105934336328e-03
	-8.369999999999999e+00
	-5.970531572004305e-03
	1.123191944099079e-05
	1.119089864336752e-05
	1.747444291765983e-01
	-1.852555708234017e-01
	-5.255570823401719e-03
	-5.970531572004305e-03
	-4.015372584835020e-03
	-7.827566371152036e-03
	6.447444291765984e-01
	-6.552555708234017e-01
	0.000000000000000e+00
	0.000000000000000e+00

 5	1.130967321347316e-06
	-7.728323825666417e-08
	-4.273408647065030e-06
	-1.494509390804425e-14
	-4.239050610197768e-11
	-4.273408643540269e-06
	2.680992069188735e-03
	0.000000000000000e+00
	8.377697014389362e-12
	8.364302985531302e-12
	-1.817744829114263e-13
	-1.802175394418900e-13
	-7.838494195015915e-05
	-7.411153330309406e-05
	-1.573951835759015e-03
	1.000000000000000e+01
	1.578384950314462e-03
	-1.000000000000000e+01
	7.062205318901847e-03
	-5.865825228055305e-03
	7.106017451398978e-03
	-4.381213249713160e-06
	1.340496034594367e-03
	-6.948457010082567e-01
	9.973398398077315e+00
	9.974984169876514e+00
	1.009657169010259e-03
	8.369999999999999e+00
	-6.697014428934889e-03
	-8.369999999999999e+00
	-6.644245723915787e-03
	9.657169010259297e-06
	9.614778504157318e-06
	1.741341742637695e-01
	-1.858658257362305e-01
	-5.865825736230525e-03
	-6.644245723915787e-03
	-4.684622175161808e-03
	-8.497034056493139e-03
	6.441341742637695e-01
	-6.558658257362305e-01
	0.000000000000000e+00
	0.000000000000000e+00

 6	1.270665797451121e-06
	-7.706691504099726e-08
	-5.005762590298347e-06
	-1.814916014697590e-14
	-4.456541864379495e-11
	-5.005762586719022e-06
	2.818544644328176e-03
	0.000000000000000e+00
	8.379162934261615e-12
	8.362837065659051e-12
	-1.819078602308060e-13
	-1.800841617895438e-13
	-7.876149302484155e-05
	-7.375573043454320e-05
	-1.573596032888595e-03
	1.000000000000000e+01
	1.578761501387679e-03
	-1.000000000000000e+01
	7.932603266037657e-03
	-7.192980539915924e-03
	7.983743852254751e-03
	-5.114058621709340e-06
	1.409272322164088e-03
	-6.947759250267265e-01
	9.973318521470402e+00
	9.975064046483498e+00
	1.006948093135332e-03
	8.369999999999999e+00
	-8.162934301166658e-03
	-8.369999999999999e+00
	-8.104769686406461e-03
	6.948093135332229e-06
	6.903527716688434e-06
	1.728070189197812e-01
	-1.871929810802188e-01
	-7.192981080218775e-03
	-8.104769686406461e-03
	-6.135732360785422e-03
	-9.948662947270041e-03
	6.428070189197812e-01
	-6.571929810802188e-01
	0.000000000000000e+00
	0.000000000000000e+00

 7	1.550062749658729e-06
	-7.679590475345382e-08
	-6.572612009115740e-06
	-2.522701616193602e-14
	-4.728964529251463e-11
	-6.572612005697106e-06
	2.990838648611114e-03
	0.000000000000000e+00
	8.382416593757809e-12
	8.359583406162852e-12
	-1.821931619161114e-13
	-1.797988592158278e-13
	-7.957259677538782e-05
	-7.299998476627210e-05
	-1.572840287216347e-03
	1.000000000000000e+01
	1.579572605134971e-03
	-1.000000000000000e+01
	9.672362288167067e-03
	-1.015438537440892e-02
	9.739177524562626e-03
	-6.681523639555896e-06
	1.495419324305557e-03
	-6.946883289814693e-01
	9.973215556863634e+00
	9.975167011090345e+00
	1.003488915844757e-03
	8.369999999999999e+00
	-1.141659379731585e-02
	-8.369999999999999e+00
	-1.135145772125046e-02
	3.488915844756565e-06
	3.441626199464050e-06
	1.698456140443002e-01
	-1.901543859556998e-01
	-1.015438595569985e-02
	-1.135145772125046e-02
	-9.362142801865762e-03
	-1.317645734040726e-02
	6.398456140443002e-01
	-6.601543859556999e-01
	0.000000000000000e+00
	0.000000000000000e+00

 8	1.908885008671133e-06
	-7.663472849904134e-08
	-8.702898084689812e-06
	-3.510561373031861e-14
	-4.890960421385320e-11
	-8.702898081798824e-06
	3.093293122970825e-03
	0.000000000000000e+00
	8.386966581979037e-12
	8.355033417941625e-12
	-1.825809033703778e-13
	-1.794111161679988e-13
	-8.068738538135543e-05
	-7.198448729666555e-05
	-1.571824789741307e-03
	1.000000000000000e+01
	1.580687393736389e-03
	-1.000000000000000e+01
	1.190546892417603e-02
	-1.431250305274854e-02
	1.199359068218808e-02
	-8.812175801205160e-06
	1.546646561485413e-03
	-6.946361054281717e-01
	9.973154210558736e+00
	9.975228357395297e+00
	1.001397332997188e-03
	8.369999999999999e+00
	-1.596658201847845e-02
	-8.369999999999999e+00
	-1.589729188729728e-02
	1.397332997188316e-06
	1.348423392974463e-06
	1.656874963411656e-01
	-1.943125036588344e-01
	-1.431250365883438e-02
	-1.589729188729728e-02
	-1.388010725276339e-02
	-1.769690406971392e-02
	6.356874963411656e-01
	-6.643125036588344e-01
	0.000000000000000e+00
	0.000000000000000e+00

 9	2.301044538295147e-06
	-7.656705057778145e-08
	-1.109951451799763e-05
	-4.635309277939248e-14
	-4.959039900268795e-11
	-1.109951451587729e-05
	3.136350061833979e-03
	0.000000000000000e+00
	8.392154415087956e-12
	8.349845584832705e-12
	-1.830168448524255e-13
	-1.789751723626639e-13
	-8.195806598279267e-05
	-7.085855146479525e-05
	-1.570698853903343e-03
	1.000000000000000e+01
	1.581958074332638e-03
	-1.000000000000000e+01
	1.434529608905746e-02
	-1.906267898224420e-02
	1.445738554932970e-02
	-1.120894602722332e-05
	1.568175030916989e-03
	-6.946140604461438e-01
	9.973128462890298e+00
	9.975254105063755e+00
	1.000543078820963e-03
	8.369999999999999e+00
	-2.115441512732374e-02
	-8.369999999999999e+00
	-2.108338146489645e-02
	5.430788209628285e-07
	4.934884219601405e-07
	1.609373204015756e-01
	-1.990626795984244e-01
	-1.906267959842443e-02
	-2.108338146489645e-02
	-1.903442981532663e-02
	-2.285484525151633e-02
	6.309373204015756e-01
	-6.690626795984245e-01
	0.000000000000000e+00
	0.000000000000000e+00

 10	2.745918248322724e-06
	-7.654086073800161e-08
	-1.385018512491815e-05
	-5.932095293229866e-14
	-4.985341276562658e-11
	-1.385018512375524e-05
	3.152984395258298e-03
	0.000000000000000e+00
	8.398139652187198e-12
	8.343860347733458e-12
	-1.835167309403410e-13
	-1.784752829187267e-13
	-8.343792988261613e-05
	-6.958774475769805e-05
	-1.569428047189233e-03
	1.000000000000000e+01
	1.583437938226477e-03
	-1.000000000000000e+01
	1.711266048892472e-02
	-2.454738586466072e-02
	1.725225724986138e-02
	-1.395967609366632e-05
	1.576492197629149e-03
	-6.946055523097059e-01
	9.973118483893632e+00
	9.975264084060431e+00
	1.000183638745554e-03
	8.369999999999999e+00
	-2.713965222648440e-02
	-8.369999999999999e+00
	-2.706794283757254e-02
	1.836387455539763e-07
	1.337853327883497e-07
	1.554526135149121e-01
	-2.045473864850879e-01
	-2.454738648508789e-02
	-2.706794283757254e-02
	-2.498199459050714e-02
	-2.880763645651499e-02
	6.254526135149121e-01
	-6.745473864850879e-01
	0.000000000000000e+00
	0.000000000000000e+00

 11	3.370921619748301e-06
	-7.653163229629933e-08
	-1.773175448926251e-05
	-7.765370389220860e-14
	-4.994635537508597e-11
	-1.773175448949594e-05
	3.158862560483570e-03
	0.000000000000000e+00
	8.406601466566975e-12
	8.335398533353679e-12
	-1.842210876739237e-13
	-1.777709201998687e-13
	-8.556509333757810e-05
	-6.783333884831560e-05
	-1.567673641269980e-03
	1.000000000000000e+01
	1.585565101672977e-03
	-1.000000000000000e+01
	2.100012900468079e-02
	-3.230464643094167e-02
	2.117854166912276e-02
	-1.784126644419678e-05
	1.579431280241785e-03
	-6.946025397264162e-01
	9.973114928455676e+00
	9.975267639498389e+00
	1.000073939545303e-03
	8.369999999999999e+00
	-3.560146660614194e-02
	-8.369999999999999e+00
	-3.552951619362472e-02
	7.393954530331790e-08
	2.399318992823193e-08
	1.476953529473900e-01
	-2.123046470526100e-01
	-3.230464705261000e-02
	-3.552951619362472e-02
	-3.339038886018527e-02
	-3.722534966483261e-02
	6.176953529473900e-01
	-6.823046470526101e-01
	0.000000000000000e+00
	0.000000000000000e+00

 12	4.287151294048493e-06
	-7.653108586341586e-08
	-2.342962898108439e-05
	-1.045659456725779e-13
	-4.995129599226672e-11
	-2.342962898337670e-05
	3.159175030342897e-03
	0.000000000000000e+00
	8.419027957678171e-12
	8.322972042242474e-12
	-1.852521864623995e-13
	-1.767398099929137e-13
	-8.876944689071087e-05
	-6.533981790962557e-05
	-1.565180120316815e-03
	1.000000000000000e+01
	1.588769455213683e-03
	-1.000000000000000e+01
	2.669831713979778e-02
	-4.370008294885244e-02
	2.693370856089232e-02
	-2.353914210945478e-05
	1.579587515171449e-03
	-6.946023960222942e-01
	9.973114652838161e+00
	9.975267915115898e+00
	1.000031679373314e-03
	8.369999999999999e+00
	-4.802795771716717e-02
	-8.369999999999999e+00
	-4.795598837543780e-02
	3.167937331373414e-08
	-1.827192267853258e-08
	1.362999164290503e-01
	-2.237000835709496e-01
	-4.370008357094966e-02
	-4.795598837543780e-02
	-4.573675220317004e-02
	-4.958948382317845e-02
	6.062999164290503e-01
	-6.937000835709497e-01
	0.000000000000000e+00
	0.000000000000000e+00

 13	5.805178871999489e-06
	-7.653396193748027e-08
	-3.287029744546578e-05
	-1.491254350423822e-13
	-4.992204742766249e-11
	-3.287029745115797e-05
	3.157325201762166e-03
	0.000000000000000e+00
	8.439609508407720e-12
	8.302390491512912e-12
	-1.869507124882590e-13
	-1.750412582448805e-13
	-9.428969593412603e-05
	-6.141939848866042e-05
	-1.561259700871873e-03
	1.000000000000000e+01
	1.594289704236517e-03
	-1.000000000000000e+01
	3.613712920326151e-02
	-6.258326971298799e-02
	3.646692724327650e-02
	-3.297980400149888e-05
	1.578662600881083e-03
	-6.946033514883024e-01
	9.973115568384882e+00
	9.975266999569179e+00
	1.000047751174800e-03
	8.369999999999999e+00
	-6.860950844642844e-02
	-8.369999999999999e+00
	-6.853760020762309e-02
	4.775117480008057e-08
	-2.170872627581916e-09
	1.174167296653020e-01
	-2.425832703346980e-01
	-6.258327033469802e-02
	-6.853760020762309e-02
	-6.618035780926994e-02
	-7.007308516983961e-02
	5.874167296653020e-01
	-7.125832703346980e-01
	0.000000000000000e+00
	0.000000000000000e+00

 14	8.691897304879754e-06
	-7.654160027528587e-08
	-5.081458324518277e-05
	-2.336427363277253e-13
	-4.984330159081899e-11
	-5.081458325723954e-05
	3.152344912931663e-03
	0.000000000000000e+00
	8.478683954338720e-12
	8.263316045581864e-12
	-1.901319499499319e-13
	-1.718599492262628e-13
	-1.054817915787701e-04
	-5.466720833358744e-05
	-1.554507510671359e-03
	1.000000000000000e+01
	1.605481799842086e-03
	-1.000000000000000e+01
	5.407641712159026e-02
	-9.847682161397785e-02
	5.458565784367685e-02
	-5.092407220865826e-05
	1.576172456465832e-03
	-6.946059571060432e-01
	9.973118019595447e+00
	9.975264548358615e+00
	1.000023071506330e-03
	8.369999999999999e+00
	-1.076839543768955e-01
	-8.369999999999999e+00
	-1.076122100996023e-01
	2.307150632972641e-08
	-2.677179526109258e-08
	8.152317776450141e-02
	-2.784768222354986e-01
	-9.847682223549858e-02
	-1.076122100996023e-01
	-1.049751653101330e-01
	-1.089788903079420e-01
	5.515231777645014e-01
	-7.484768222354986e-01
	0.000000000000000e+00
	0.000000000000000e+00

 15	1.446533417064028e-05
	-7.656515290346148e-08
	-8.664919847645863e-05
	-4.013654187472599e-13
	-4.960183856011485e-11
	-8.664919850071020e-05
	3.137073557860725e-03
	0.000000000000000e+00
	8.556457756689773e-12
	8.185542243230654e-12
	-1.962220687930435e-13
	-1.657696059508849e-13
	-1.303088715416318e-04
	-4.365967306517590e-05
	-1.543499975313001e-03
	1.000000000000000e+01
	1.630308879727174e-03
	-1.000000000000000e+01
	8.989570691462093e-02
	-1.701613234559565e-01
	9.076329324818853e-02
	-8.675863335676041e-05
	1.568536778930362e-03
	-6.946139050225928e-01
	9.973125589289991e+00
	9.975256978664067e+00
	1.000031999324110e-03
	8.369999999999999e+00
	-1.854577567269189e-01
	-8.369999999999999e+00
	-1.853865189550084e-01
	3.199932411039365e-08
	-1.760251444972120e-08
	9.838675924202622e-03
	-3.501613240757974e-01
	-1.701613240757974e-01
	-1.853865189550084e-01
	-1.821287971664675e-01
	-1.864780107816377e-01
	4.798386759242027e-01
	-8.201613240757974e-01
	0.000000000000000e+00
	0.000000000000000e+00

 16	2.446533417064028e-05
	-7.662291690084701e-08
	-1.484213638782098e-04
	-6.863111155194653e-13
	-4.900887074792600e-11
	-1.484213639213962e-04
	3.099571245481200e-03
	0.000000000000000e+00
	8.689483328342442e-12
	8.052516671577526e-12
	-2.056674693503589e-13
	-1.563236111169216e-13
	-1.791080977560466e-04
	-3.068673387783820e-05
	-1.530527035973783e-03
	1.000000000000000e+01
	1.679108105808564e-03
	-1.000000000000000e+01
	1.516302372542268e-01
	-2.937431566096232e-01
	1.531155439143142e-01
	-1.485306660087438e-04
	1.549785622740600e-03
	-6.946334370328064e-01
	9.973144226039203e+00
	9.975238341914833e+00
	1.000003697500324e-03
	8.369999999999999e+00
	-3.184833283779085e-01
	-8.369999999999999e+00
	-3.184133395757844e-01
	3.697500324409765e-09
	-4.531137042351623e-08
	-1.137431572252257e-01
	-4.737431572252256e-01
	-2.937431572252256e-01
	-3.184133395757844e-01
	-3.139356371318832e-01
	-3.191805079227303e-01
	3.562568427747744e-01
	-9.437431572252257e-01
	0.000000000000000e+00
	0.000000000000000e+00

 17	3.446533417064028e-05
	-7.668971059397909e-08
	-2.096010079113593e-04
	-9.633126704062228e-13
	-4.832404350664049e-11
	-2.096010079707163e-04
	3.056259273733706e-03
	0.000000000000000e+00
	8.819934186007672e-12
	7.922065813911611e-12
	-2.137174711398177e-13
	-1.482728315129323e-13
	-2.322558191581365e-04
	-2.265481124678420e-05
	-1.522495113196218e-03
	1.000000000000000e+01
	1.732255827080203e-03
	-1.000000000000000e+01
	2.127664159140451e-01
	-4.161457566798586e-01
	2.148635174804482e-01
	-2.097101566403102e-04
	1.528129636866853e-03
	-6.946559541478232e-01
	9.973165800299014e+00
	9.975216767654999e+00
	1.000020975243630e-03
	8.369999999999999e+00
	-4.489341860415834e-01
	-8.369999999999999e+00
	-4.488656449411820e-01
	2.097524362976548e-08
	-2.734879987687500e-08
	-2.361457572878491e-01
	-5.961457572878490e-01
	-4.161457572878491e-01
	-4.488656449411820e-01
	-4.430592494622285e-01
	-4.494320152223515e-01
	2.338542427121509e-01
	-1.066145757287849e+00
	0.000000000000000e+00
	0.000000000000000e+00

 18	4.446533417064028e-05
	-7.676019228956993e-08
	-2.699434933526902e-04
	-1.232322320728414e-12
	-4.760080492219081e-11
	-2.699434934259181e-04
	3.010517972500447e-03
	0.000000000000000e+00
	8.947550913068761e-12
	7.794449086849616e-12
	-2.206052357680458e-13
	-1.413841621884477e-13
	-2.873896286458193e-04
	-1.744613529313526e-05
	-1.517286437101226e-03
	1.000000000000000e+01
	1.787389636440269e-03
	-1.000000000000000e+01
	2.730629981035798e-01
	-5.368764688913130e-01
	2.757635229048906e-01
	-2.700524801310840e-04
	1.505258986250223e-03
	-6.946797342582713e-01
	9.973188568219717e+00
	9.975193999734275e+00
	9.999982139909890e-04
	8.369999999999999e+00
	-5.765509131012436e-01
	-8.369999999999999e+00
	-5.764839014610814e-01
	-1.786009011044072e-09
	-4.938681393323488e-08
	-3.568764694901723e-01
	-7.168764694901724e-01
	-5.368764694901723e-01
	-5.764839014610814e-01
	-5.692991607449358e-01
	-5.769200548434098e-01
	1.131235305098277e-01
	-1.186876469490172e+00
	0.000000000000000e+00
	0.000000000000000e+00

 19	5.446533417064028e-05
	-7.683781215984930e-08
	-3.292130027032318e-04
	-1.493402200058490e-12
	-4.680498672993068e-11
	-3.292130027885381e-04
	2.960186366248027e-03
	0.000000000000000e+00
	9.072114908076690e-12
	7.669885091840572e-12
	-2.265817341387862e-13
	-1.354066619889263e-13
	-3.431074884647847e-04
	-1.389448576155416e-05
	-1.513734787433180e-03
	1.000000000000000e+01
	1.843107496134670e-03
	-1.000000000000000e+01
	3.322819975766930e-01
	-6.554658192225588e-01
	3.355752156887974e-01
	-3.293218112104465e-04
	1.480093183124014e-03
	-6.947058589169699e-01
	9.973213626989773e+00
	9.975168940964190e+00
	1.000011755490464e-03
	8.369999999999999e+00
	-7.011149081078543e-01
	-8.369999999999999e+00
	-7.010495801841189e-01
	1.175549046436673e-08
	-3.504949626556395e-08
	-4.754658198090897e-01
	-8.354658198090896e-01
	-6.554658198090897e-01
	-7.010495801841189e-01
	-6.924718929724993e-01
	-7.013969423281576e-01
	-5.465819809089667e-03
	-1.305465819809090e+00
	0.000000000000000e+00
	0.000000000000000e+00

 20	6.446533417064028e-05
	-7.692140103651737e-08
	-3.871751403278084e-04
	-1.746428262168329e-12
	-4.594746084216408e-11
	-3.871751404237984e-04
	2.905952050226992e-03
	0.000000000000000e+00
	9.193360079242864e-12
	7.548639920673091e-12
	-2.318503464790217e-13
	-1.301369667194026e-13
	-3.985329991625305e-04
	-1.135785883472164e-05
	-1.511198160374618e-03
	1.000000000000000e+01
	1.898533006711171e-03
	-1.000000000000000e+01
	3.901897088382333e-01
	-7.714443288088240e-01
	3.940625464061133e-01
	-3.872837567880025e-04
	1.452976025113496e-03
	-6.947339994683015e-01
	9.973240634436824e+00
	9.975141933517113e+00
	9.999900134604158e-04
	8.369999999999999e+00
	-8.223600792728121e-01
	-8.369999999999999e+00
	-8.222965664057913e-01
	-9.986539584307961e-09
	-5.593400042647204e-08
	-5.914443293815359e-01
	-9.514443293815358e-01
	-7.714443293815358e-01
	-8.222965664057913e-01
	-8.123332414267281e-01
	-8.225805128766593e-01
	-1.214443293815358e-01
	-1.421444329381536e+00
	0.000000000000000e+00
	0.000000000000000e+00

 21	7.446533417064028e-05
	-7.701532036706083e-08
	-4.436041131371110e-04
	-1.990988227852780e-12
	-4.498455952934122e-11
	-4.436041132426270e-04
	2.845053254235286e-03
	0.000000000000000e+00
	9.310956775683067e-12
	7.431043224231400e-12
	-2.365303449232422e-13
	-1.254558139871788e-13
	-4.531001552677445e-04
	-9.496042130632701e-06
	-1.509336343543617e-03
	1.000000000000000e+01
	1.953100162698788e-03
	-1.000000000000000e+01
	4.465575671439204e-01
	-8.843631732421360e-01
	4.509946922828172e-01
	-4.437125138896866e-04
	1.422526627117643e-03
	-6.947655482829387e-01
	9.973270943083339e+00
	9.975111624870568e+00
	9.999987547306653e-04
	8.369999999999999e+00
	-9.399567757118916e-01
	-8.369999999999999e+00
	-9.398952988318885e-01
	-1.245269334691542e-09
	-4.622982886403276e-08
	-7.043631737980036e-01
	-1.064363173798004e+00
	-8.843631737980037e-01
	-9.398952988318885e-01
	-9.285677949501949e-01
	-9.401326998851544e-01
	-2.343631737980036e-01
	-1.534363173798004e+00
	0.000000000000000e+00
	0.000000000000000e+00

 22	8.446533417064028e-05
	-7.711563413814327e-08
	-4.982749795180014e-04
	-2.226609651568258e-12
	-4.395576157850391e-11
	-4.982749796321044e-04
	2.779986818360302e-03
	0.000000000000000e+00
	9.424564796865829e-12
	7.317435203046984e-12
	-2.407338371250231e-13
	-1.212511038617777e-13
	-5.063583413003839e-04
	-8.083361782390596e-06
	-1.507923663073424e-03
	1.000000000000000e+01
	2.006358348617819e-03
	-1.000000000000000e+01
	5.011631366506341e-01
	-9.937699724565996e-01
	5.061469681489568e-01
	-4.983831498322697e-04
	1.389993409180151e-03
	-6.947992293644318e-01
	9.973303369530369e+00
	9.975079198423506e+00
	9.999810301278588e-04
	8.369999999999999e+00
	-1.053564796893625e+00
	-8.369999999999999e+00
	-1.053505498250291e+00
	-1.896987214130128e-08
	-6.292563371980519e-08
	-8.137699729941494e-01
	-1.173769972994149e+00
	-9.937699729941494e-01
	-1.053505498250291e+00
	-1.040846539717782e+00
	-1.053707582294851e+00
	-3.437699729941494e-01
	-1.643769972994150e+00
	0.000000000000000e+00
	0.000000000000000e+00

 23	9.446533417064028e-05
	-7.722688507219843e-08
	-5.509751119739045e-04
	-2.452754632876664e-12
	-4.281526699662426e-11
	-5.509751120958114e-04
	2.707856117169419e-03
	0.000000000000000e+00
	9.533833690573826e-12
	7.208166309337188e-12
	-2.445328224858049e-13
	-1.174508443883376e-13
	-5.579620069546126e-04
	-6.986894980713025e-06
	-1.506827196154938e-03
	1.000000000000000e+01
	2.057962014162779e-03
	-1.000000000000000e+01
	5.537908829005331e-01
	-1.099242368084782e+00
	5.593017131683666e-01
	-5.510830267833541e-04
	1.353928058584709e-03
	-6.948365084750231e-01
	9.973339261622760e+00
	9.975043306331081e+00
	9.999847344255789e-04
	8.369999999999999e+00
	-1.162833690600678e+00
	-8.369999999999999e+00
	-1.162776801455720e+00
	-1.526557442100086e-08
	-5.808084141762513e-08
	-9.192423686012352e-01
	-1.279242368601235e+00
	-1.099242368601235e+00
	-1.162776801455720e+00
	-1.148827751281855e+00
	-1.162951473830238e+00
	-4.492423686012351e-01
	-1.749242368601235e+00
	0.000000000000000e+00
	0.000000000000000e+00

 24	1.044653341706403e-04
	-7.734545706084759e-08
	-6.014945176974207e-04
	-2.668757646556396e-12
	-4.159955178475674e-11
	-6.014945178264723e-04
	2.630968079230734e-03
	0.000000000000000e+00
	9.638392393556624e-12
	7.103607606352471e-12
	-2.479784659835936e-13
	-1.140038791196464e-13
	-6.076152760238901e-04
	-6.120758326455100e-06
	-1.505961059389337e-03
	1.000000000000000e+01
	2.107615283127498e-03
	-1.000000000000000e+01
	6.042331282448916e-01
	-1.200358067583593e+00
	6.102491498465482e-01
	-6.016021601656582e-04
	1.315484039615367e-03
	-6.948761993957393e-01
	9.973377600470966e+00
	9.975004967482832e+00
	9.999706930092233e-04
	8.369999999999999e+00
	-1.267392393582611e+00
	-8.369999999999999e+00
	-1.267338077974275e+00
	-2.930699077676155e-08
	-7.090654256151830e-08
	-1.020358068077528e+00
	-1.380358068077528e+00
	-1.200358068077528e+00
	-1.267338077974275e+00
	-1.252147696073678e+00
	-1.267491096932437e+00
	-5.503580680775279e-01
	-1.850358068077528e+00
	0.000000000000000e+00
	0.000000000000000e+00

 25	1.144653341706403e-04
	-7.747422784036034e-08
	-6.496359418385750e-04
	-2.874007248321951e-12
	-4.027964530977141e-11
	-6.496359419741371e-04
	2.547490453769182e-03
	0.000000000000000e+00
	9.737886385124913e-12
	7.004113614782165e-12
	-2.511089758446412e-13
	-1.108720098691065e-13
	-6.550627101959174e-04
	-5.426768357328390e-06
	-1.505267069314541e-03
	1.000000000000000e+01
	2.155062717200031e-03
	-1.000000000000000e+01
	6.522907790407327e-01
	-1.296724393503883e+00
	6.587882119266024e-01
	-6.497432885869681e-04
	1.273745226884591e-03
	-6.949192199998396e-01
	9.973419144196288e+00
	9.974963423757467e+00
	9.999711441108755e-04
	8.369999999999999e+00
	-1.366886385150110e+00
	-8.369999999999999e+00
	-1.366834856485059e+00
	-2.885588912465425e-08
	-6.913553443442567e-08
	-1.116724393972776e+00
	-1.476724393972776e+00
	-1.296724393972776e+00
	-1.366834856485059e+00
	-1.350458288730162e+00
	-1.366970525693993e+00
	-6.467243939727761e-01
	-1.946724393972776e+00
	0.000000000000000e+00
	0.000000000000000e+00

 26	1.244653341706403e-04
	-7.761035644199512e-08
	-6.952079141716860e-04
	-3.067838464793692e-12
	-3.888427526041859e-11
	-6.952079143131855e-04
	2.459240126516687e-03
	0.000000000000000e+00
	9.831959339311633e-12
	6.910040660593357e-12
	-2.539527374942024e-13
	-1.080268633534552e-13
	-7.000723687237455e-04
	-4.864454552057980e-06
	-1.504704755409581e-03
	1.000000000000000e+01
	2.200072375633786e-03
	-1.000000000000000e+01
	6.977741884229235e-01
	-1.387956588508705e+00
	7.047273379058876e-01
	-6.953149482964022e-04
	1.229620063258343e-03
	-6.949646325141359e-01
	9.973463165105056e+00
	9.974919402848659e+00
	9.999599710474585e-04
	8.369999999999999e+00
	-1.460959339336114e+00
	-8.369999999999999e+00
	-1.460910763537868e+00
	-4.002895254149123e-08
	-7.891322780190982e-08
	-1.207956588951251e+00
	-1.567956588951251e+00
	-1.387956588951251e+00
	-1.460910763537868e+00
	-1.443408954319775e+00
	-1.461032374901670e+00
	-7.379565889512513e-01
	-2.037956588951251e+00
	0.000000000000000e+00
	0.000000000000000e+00

 27	1.344653341706403e-04
	-7.775563670061475e-08
	-7.380320623547182e-04
	-3.249639862062270e-12
	-3.739540764764457e-11
	-7.380320625016629e-04
	2.365076535916553e-03
	0.000000000000000e+00
	9.920277222810571e-12
	6.821722777092291e-12
	-2.565313465645221e-13
	-1.054468581927313e-13
	-7.424369451992201e-04
	-4.404882844496897e-06
	-1.504245183608630e-03
	1.000000000000000e+01
	2.242436952020943e-03
	-1.000000000000000e+01
	7.405038394129829e-01
	-1.473699048475688e+00
	7.478852270417535e-01
	-7.381387628770525e-04
	1.182538267958276e-03
	-6.950130001532147e-01
	9.973510038764335e+00
	9.974872529189332e+00
	9.999583397817342e-04
	8.369999999999999e+00
	-1.549277222834405e+00
	-8.369999999999999e+00
	-1.549231789480975e+00
	-4.166021826576874e-08
	-7.905562591341331e-08
	-1.293699048889625e+00
	-1.653699048889625e+00
	-1.473699048889625e+00
	-1.549231789480975e+00
	-1.530670865850995e+00
	-1.549341911552087e+00
	-8.236990488896249e-01
	-2.123699048889625e+00
	0.000000000000000e+00
	0.000000000000000e+00

 28	1.444653341706403e-04
	-7.790781418381790e-08
	-7.779383121537392e-04
	-3.418769942901455e-12
	-3.583589496355871e-11
	-7.779383123056454e-04
	2.266444990263967e-03
	0.000000000000000e+00
	1.000251478329229e-11
	6.739485216608441e-12
	-2.588611124002718e-13
	-1.031157016090953e-13
	-7.819652731497137e-04
	-4.026960995969831e-06
	-1.503867261673300e-03
	1.000000000000000e+01
	2.281965279889199e-03
	-1.000000000000000e+01
	7.803111082303446e-01
	-1.553610179628711e+00