Title: **.subckt char_schem g1v8 d1v8 b
Date: Sun Aug  1 21:39:37  2021
Plotname: DC transfer characteristic
Flags: real
No. Variables: 48
No. Points: 181
Variables:
	0	v-sweep	voltage
	1		voltage
	2	@include[current]	capacitance
	3	i(@m.xm1.msky130_fd_pr__nfet_01v8_lvt[ib])	current dims=0
	4	i(@m.xm1.msky130_fd_pr__nfet_01v8_lvt[id])	current
	5	i(@m.xm1.msky130_fd_pr__nfet_01v8_lvt[ig])	current dims=0
	6	i(@m.xm1.msky130_fd_pr__nfet_01v8_lvt[is])	current dims=0
	7	i(@m.xm2.msky130_fd_pr__nfet_01v8[ib])	current dims=0
	8	i(@m.xm2.msky130_fd_pr__nfet_01v8[id])	current
	9	i(@m.xm2.msky130_fd_pr__nfet_01v8[ig])	current dims=0
	10	i(@m.xm2.msky130_fd_pr__nfet_01v8[is])	current dims=0
	11	i(@m.xm3.msky130_fd_pr__nfet_01v8_lvt[ib])	current dims=0
	12	i(@m.xm3.msky130_fd_pr__nfet_01v8_lvt[id])	current
	13	i(@m.xm3.msky130_fd_pr__nfet_01v8_lvt[ig])	current dims=0
	14	i(@m.xm3.msky130_fd_pr__nfet_01v8_lvt[is])	current dims=0
	15	i(@m.xm4.msky130_fd_pr__nfet_01v8[ib])	current dims=0
	16	i(@m.xm4.msky130_fd_pr__nfet_01v8[id])	current
	17	i(@m.xm4.msky130_fd_pr__nfet_01v8[ig])	current dims=0
	18	i(@m.xm4.msky130_fd_pr__nfet_01v8[is])	current dims=0
	19	b	voltage
	20	d1v8	voltage
	21	g1v8	voltage
	22	m.xm1.msky130_fd_pr__nfet_01v8_lvt#body	voltage
	23	m.xm1.msky130_fd_pr__nfet_01v8_lvt#dbody	voltage
	24	m.xm1.msky130_fd_pr__nfet_01v8_lvt#sbody	voltage
	25	m.xm2.msky130_fd_pr__nfet_01v8#body	voltage
	26	m.xm2.msky130_fd_pr__nfet_01v8#dbody	voltage
	27	m.xm2.msky130_fd_pr__nfet_01v8#sbody	voltage
	28	m.xm3.msky130_fd_pr__nfet_01v8_lvt#body	voltage
	29	m.xm3.msky130_fd_pr__nfet_01v8_lvt#dbody	voltage
	30	m.xm3.msky130_fd_pr__nfet_01v8_lvt#sbody	voltage
	31	m.xm4.msky130_fd_pr__nfet_01v8#body	voltage
	32	m.xm4.msky130_fd_pr__nfet_01v8#dbody	voltage
	33	m.xm4.msky130_fd_pr__nfet_01v8#sbody	voltage
	34	net1	voltage
	35	net2	voltage
	36	net3	voltage
	37	net4	voltage
	38	s	voltage
	39	sky130_fd_pr__esd_nfet_05v0_nvt.pm3	voltage
	40	i(vb)	current
	41	i(vd)	current
	42	i(vg)	current
	43	i(vn_long)	current
	44	i(vn_lvt_long)	current
	45	i(vn_lvt_short)	current
	46	i(vn_short)	current
	47	i(vs)	current
Values:
 0	0.000000000000000e+00
	0.000000000000000e+00
	0.000000000000000e+00
	0.000000000000000e+00
	3.417815268752942e-12
	0.000000000000000e+00
	0.000000000000000e+00
	0.000000000000000e+00
	8.446074928834498e-13
	0.000000000000000e+00
	0.000000000000000e+00
	0.000000000000000e+00
	1.649469969906567e-10
	0.000000000000000e+00
	0.000000000000000e+00
	0.000000000000000e+00
	7.138593936527704e-13
	0.000000000000000e+00
	0.000000000000000e+00
	0.000000000000000e+00
	1.800000000000000e+00
	0.000000000000000e+00
	2.267867913520779e-11
	5.658740127629402e-11
	1.133933956723950e-11
	2.263602263926978e-11
	5.656553384638586e-11
	1.131801131926895e-11
	2.462423376443858e-11
	5.756017859076792e-11
	1.231211688197522e-11
	2.263661143457472e-11
	5.656582824403842e-11
	1.131830571692129e-11
	1.800000000000000e+00
	1.800000000000000e+00
	1.800000000000000e+00
	1.800000000000000e+00
	0.000000000000000e+00
	0.000000000000000e+00
	7.322845248693783e-12
	-1.772590962900722e-10
	0.000000000000000e+00
	2.657429831742775e-12
	5.229594535194337e-12
	1.668425397838291e-10
	2.529532139305957e-12
	1.699232791459994e-10

 1	1.000000000000000e-02
	0.000000000000000e+00
	0.000000000000000e+00
	0.000000000000000e+00
	4.698408953645331e-12
	0.000000000000000e+00
	0.000000000000000e+00
	0.000000000000000e+00
	1.106616532684517e-12
	0.000000000000000e+00
	0.000000000000000e+00
	0.000000000000000e+00
	2.110132123716758e-10
	0.000000000000000e+00
	0.000000000000000e+00
	0.000000000000000e+00
	9.502751871328975e-13
	0.000000000000000e+00
	0.000000000000000e+00
	0.000000000000000e+00
	1.800000000000000e+00
	1.000000000000000e-02
	2.269915484838666e-11
	5.659763913288228e-11
	1.134957742382981e-11
	2.263982628893647e-11
	5.656743567121898e-11
	1.131991314410248e-11
	2.518284621078962e-11
	5.783948481390305e-11
	1.259142310518500e-11
	2.264086715143927e-11
	5.656795610247047e-11
	1.132043357535372e-11
	1.800000000000000e+00
	1.800000000000000e+00
	1.800000000000000e+00
	1.800000000000000e+00
	0.000000000000000e+00
	0.000000000000000e+00
	7.346331149737273e-12
	-2.251141495435149e-10
	0.000000000000000e+00
	2.920330643974012e-12
	6.501466032204917e-12
	2.129283416252292e-10
	2.764011242106790e-12
	2.177685130451991e-10

 2	2.000000000000000e-02
	0.000000000000000e+00
	0.000000000000000e+00
	0.000000000000000e+00
	6.458410043752062e-12
	0.000000000000000e+00
	0.000000000000000e+00
	0.000000000000000e+00
	1.449880083943288e-12
	0.000000000000000e+00
	0.000000000000000e+00
	0.000000000000000e+00
	2.699312495006800e-10
	0.000000000000000e+00
	0.000000000000000e+00
	0.000000000000000e+00
	1.264983742873217e-12
	0.000000000000000e+00
	0.000000000000000e+00
	0.000000000000000e+00
	1.800000000000000e+00
	2.000000000000000e-02
	2.272729590915069e-11
	5.661170966326266e-11
	1.136364795421302e-11
	2.264480953002026e-11
	5.656992729176056e-11
	1.132240476464462e-11
	2.589730233623556e-11
	5.819671287657435e-11
	1.294865116795178e-11
	2.264653221504415e-11
	5.657078863427260e-11
	1.132326610715636e-11
	1.800000000000000e+00
	1.800000000000000e+00
	1.800000000000000e+00
	1.800000000000000e+00
	0.000000000000000e+00
	0.000000000000000e+00
	7.376460969374554e-12
	-2.864979364858300e-10
	0.000000000000000e+00
	3.261391157138860e-12
	8.263612016889965e-12
	2.718749669838871e-10
	3.097966327914037e-12
	2.791045233712944e-10

 3	3.000000000000000e-02
	0.000000000000000e+00
	0.000000000000000e+00
	0.000000000000000e+00
	8.877042163304127e-12
	0.000000000000000e+00
	0.000000000000000e+00
	0.000000000000000e+00
	1.899584723249392e-12
	0.000000000000000e+00
	0.000000000000000e+00
	0.000000000000000e+00
	3.452805850938598e-10
	0.000000000000000e+00
	0.000000000000000e+00
	0.000000000000000e+00
	1.683911150609431e-12
	0.000000000000000e+00
	0.000000000000000e+00
	0.000000000000000e+00
	1.800000000000000e+00
	3.000000000000000e-02
	2.276596795348215e-11
	5.663104568542615e-11
	1.138298397638040e-11
	2.265133800193078e-11
	5.657319152771540e-11
	1.132566900060019e-11
	2.681100675267560e-11
	5.865356508472830e-11
	1.340550337622782e-11
	2.265407332050653e-11
	5.657455918700340e-11
	1.132703665988782e-11
	1.800000000000000e+00
	1.800000000000000e+00
	1.800000000000000e+00
	1.800000000000000e+00
	0.000000000000000e+00
	0.000000000000000e+00
	7.415118810902048e-12
	-3.651763336165459e-10
	0.000000000000000e+00
	3.723243935382925e-12
	1.068656274583191e-11
	3.472635512480338e-10
	3.502975687297294e-12
	3.577411231310730e-10

 4	4.000000000000000e-02
	0.000000000000000e+00
	0.000000000000000e+00
	0.000000000000000e+00
	1.220037890540929e-11
	0.000000000000000e+00
	0.000000000000000e+00
	0.000000000000000e+00
	2.488718000403077e-12
	0.000000000000000e+00
	0.000000000000000e+00
	0.000000000000000e+00
	4.416349893382397e-10
	0.000000000000000e+00
	0.000000000000000e+00
	0.000000000000000e+00
	2.241567798692073e-12
	0.000000000000000e+00
	0.000000000000000e+00
	0.000000000000000e+00
	1.800000000000000e+00
	4.000000000000000e-02
	2.281910548459941e-11
	5.665761445098171e-11
	1.140955274194129e-11
	2.265989059246777e-11
	5.657746782298335e-11
	1.132994529586910e-11
	2.797942032201391e-11
	5.923777186931295e-11
	1.398971016096862e-11
	2.266411168876031e-11
	5.657957837112976e-11
	1.133205584401507e-11
	1.800000000000000e+00
	1.800000000000000e+00
	1.800000000000000e+00
	1.800000000000000e+00
	0.000000000000000e+00
	0.000000000000000e+00
	7.464724493274102e-12
	-4.660449803850497e-10
	0.000000000000000e+00
	4.312994406063808e-12
	1.401190274918918e-11
	4.436699896359642e-10
	4.050093593832571e-12
	4.585656540427892e-10

 5	5.000000000000000e-02
	0.000000000000000e+00
	0.000000000000000e+00
	0.000000000000000e+00
	1.676618641942141e-11
	0.000000000000000e+00
	0.000000000000000e+00
	0.000000000000000e+00
	3.260481493497938e-12
	0.000000000000000e+00
	0.000000000000000e+00
	0.000000000000000e+00
	5.648375430857167e-10
	0.000000000000000e+00
	0.000000000000000e+00
	0.000000000000000e+00
	2.983890190836897e-12
	0.000000000000000e+00
	0.000000000000000e+00
	0.000000000000000e+00
	1.800000000000000e+00
	5.000000000000000e-02
	2.289210907521686e-11
	5.669411624628619e-11
	1.144605453725312e-11
	2.267109446854220e-11
	5.658306976101988e-11
	1.133554723390686e-11
	2.947339453248410e-11
	5.998475897444001e-11
	1.473669726629533e-11
	2.267747422205087e-11
	5.658625963777433e-11
	1.133873711066084e-11
	1.800000000000000e+00
	1.800000000000000e+00
	1.800000000000000e+00
	1.800000000000000e+00
	0.000000000000000e+00
	0.000000000000000e+00
	7.528386261695031e-12
	-5.954063908575336e-10
	0.000000000000000e+00
	5.073275133327115e-12
	1.860200882219942e-11
	5.669278380082687e-10
	4.803268893738277e-12
	5.878481011895195e-10

 6	6.000000000000000e-02
	0.000000000000000e+00
	0.000000000000000e+00
	0.000000000000000e+00
	2.303794193726990e-11
	0.000000000000000e+00
	0.000000000000000e+00
	0.000000000000000e+00
	4.271449204843482e-12
	0.000000000000000e+00
	0.000000000000000e+00
	0.000000000000000e+00
	7.223512079976649e-10
	0.000000000000000e+00
	0.000000000000000e+00
	0.000000000000000e+00
	3.972023273833759e-12
	0.000000000000000e+00
	0.000000000000000e+00
	0.000000000000000e+00
	1.800000000000000e+00
	6.000000000000000e-02
	2.299238927550056e-11
	5.674425634642225e-11
	1.149619463739925e-11
	2.268577092705320e-11
	5.659040799027447e-11
	1.134288546316307e-11
	3.138342168855667e-11
	6.093977255233817e-11
	1.569171084444874e-11
	2.269526158954999e-11
	5.659515332152296e-11
	1.134763079441104e-11
	1.800000000000000e+00
	1.800000000000000e+00
	1.800000000000000e+00
	1.800000000000000e+00
	0.000000000000000e+00
	0.000000000000000e+00
	7.610097108993312e-12
	-7.612470653839409e-10
	0.000000000000000e+00
	6.082245818106458e-12
	2.486189032424591e-11
	7.245191113725014e-10
	5.783817869087216e-12
	7.536326224136420e-10

 7	7.000000000000001e-02
	0.000000000000000e+00
	0.000000000000000e+00
	0.000000000000000e+00
	3.165138363632997e-11
	0.000000000000000e+00
	0.000000000000000e+00
	0.000000000000000e+00
	5.595699855736173e-12
	0.000000000000000e+00
	0.000000000000000e+00
	0.000000000000000e+00
	9.237054807327314e-10
	0.000000000000000e+00
	0.000000000000000e+00
	0.000000000000000e+00
	5.287354399563085e-12
	0.000000000000000e+00
	0.000000000000000e+00
	0.000000000000000e+00
	1.800000000000000e+00
	7.000000000000001e-02
	2.313011086758429e-11
	5.681311714245615e-11
	1.156505543344698e-11
	2.270499538385156e-11
	5.660002021867245e-11
	1.135249769156319e-11
	3.382504964902477e-11
	6.216058653239564e-11
	1.691252482483252e-11
	2.271893884361588e-11
	5.660699194855466e-11
	1.135946942144483e-11
	1.800000000000000e+00
	1.800000000000000e+00
	1.800000000000000e+00
	1.800000000000000e+00
	0.000000000000000e+00
	0.000000000000000e+00
	7.714987159534607e-12
	-9.739409279063693e-10
	0.000000000000000e+00
	7.403855306620244e-12
	3.347366828165832e-11
	9.259650823878474e-10
	7.098321930243401e-12
	9.662399186243823e-10

 8	8.000000000000000e-02
	0.000000000000000e+00
	0.000000000000000e+00
	0.000000000000000e+00
	4.347815382722058e-11
	0.000000000000000e+00
	0.000000000000000e+00
	0.000000000000000e+00
	7.330222907964369e-12
	0.000000000000000e+00
	0.000000000000000e+00
	0.000000000000000e+00
	1.181065144335657e-09
	0.000000000000000e+00
	0.000000000000000e+00
	0.000000000000000e+00
	7.038212888282316e-12
	0.000000000000000e+00
	0.000000000000000e+00
	0.000000000000000e+00
	1.800000000000000e+00
	8.000000000000000e-02
	2.331921039170741e-11
	5.690766690450675e-11
	1.165960519551659e-11
	2.273017585329129e-11
	5.661261045339073e-11
	1.136508792628427e-11
	3.694577617898817e-11
	6.372094979715165e-11
	1.847288809000559e-11
	2.275045601850819e-11
	5.662275053599915e-11
	1.137522800889212e-11
	1.800000000000000e+00
	1.800000000000000e+00
	1.800000000000000e+00
	1.800000000000000e+00
	0.000000000000000e+00
	0.000000000000000e+00
	7.849648107477321e-12
	-1.246782233010890e-09
	0.000000000000000e+00
	9.151790436590090e-12
	4.532552111413679e-11
	1.183451558972592e-09
	8.853362487570848e-12
	1.238911733959131e-09

 9	9.000000000000000e-02
	0.000000000000000e+00
	0.000000000000000e+00
	0.000000000000000e+00
	5.971272571296513e-11
	0.000000000000000e+00
	0.000000000000000e+00
	0.000000000000000e+00
	9.601989105209986e-12
	0.000000000000000e+00
	0.000000000000000e+00
	0.000000000000000e+00
	1.509954034411186e-09
	0.000000000000000e+00
	0.000000000000000e+00
	0.000000000000000e+00
	9.368785958989569e-12
	0.000000000000000e+00
	0.000000000000000e+00
	0.000000000000000e+00
	1.800000000000000e+00
	9.000000000000000e-02
	2.357878588813197e-11
	5.703745465270402e-11
	1.178939294373993e-11
	2.276315559131044e-11
	5.662910032239824e-11
	1.138157779529545e-11
	4.093382146915125e-11
	6.571497244194479e-11
	2.046691073533169e-11
	2.279240862587877e-11
	5.664372683968221e-11
	1.139620431257892e-11
	1.800000000000000e+00
	1.800000000000000e+00
	1.800000000000000e+00
	1.800000000000000e+00
	0.000000000000000e+00
	0.000000000000000e+00
	8.022550232764080e-12
	-1.596674792381236e-09
	0.000000000000000e+00
	1.142552719102241e-11
	6.156142262625508e-11
	1.512489689048380e-09
	1.119815351557918e-11
	1.588637535188365e-09

 10	9.999999999999999e-02
	0.000000000000000e+00
	0.000000000000000e+00
	0.000000000000000e+00
	8.199099396466655e-11
	0.000000000000000e+00
	0.000000000000000e+00
	0.000000000000000e+00
	1.257719553481304e-11
	0.000000000000000e+00
	0.000000000000000e+00
	0.000000000000000e+00
	1.930175416156515e-09
	0.000000000000000e+00
	0.000000000000000e+00
	0.000000000000000e+00
	1.247098373495481e-11
	0.000000000000000e+00
	0.000000000000000e+00
	0.000000000000000e+00
	1.800000000000000e+00
	9.999999999999999e-02
	2.393499278637302e-11
	5.721555810180393e-11
	1.196749639287562e-11
	2.280634730533135e-11
	5.665069617940601e-11
	1.140317365230800e-11
	4.602928222812695e-11
	6.826270282106414e-11
	2.301464111513201e-11
	2.284825123649603e-11
	5.667164814498790e-11
	1.142412561788956e-11
	1.800000000000000e+00
	1.800000000000000e+00
	1.800000000000000e+00
	1.800000000000000e+00
	0.000000000000000e+00
	0.000000000000000e+00
	8.244578312048118e-12
	-2.045453584287316e-09
	0.000000000000000e+00
	1.439559582649963e-11
	8.385114824704942e-11
	1.932917825797631e-09
	1.428901441613561e-11
	2.037214589390933e-09

 11	1.100000000000000e-01
	0.000000000000000e+00
	0.000000000000000e+00
	0.000000000000000e+00
	1.125518433715170e-10
	0.000000000000000e+00
	0.000000000000000e+00
	0.000000000000000e+00
	1.647335024571585e-11
	0.000000000000000e+00
	0.000000000000000e+00
	0.000000000000000e+00
	2.466981452464552e-09
	0.000000000000000e+00
	0.000000000000000e+00
	0.000000000000000e+00
	1.660022798177549e-11
	0.000000000000000e+00
	0.000000000000000e+00
	0.000000000000000e+00
	1.800000000000000e+00
	1.100000000000000e-01
	2.442362673164726e-11
	5.745987507441277e-11
	1.221181336553355e-11
	2.286290858459109e-11
	5.667897681903234e-11
	1.143145429194062e-11
	5.253830211215820e-11
	7.151721276260903e-11
	2.626915105754680e-11
	2.292258169297777e-11
	5.670881337322485e-11
	1.146129084613311e-11
	1.800000000000000e+00
	1.800000000000000e+00
	1.800000000000000e+00
	1.800000000000000e+00
	0.000000000000000e+00
	0.000000000000000e+00
	8.529720134662634e-12
	-2.621149519654864e-09
	0.000000000000000e+00
	1.830358087318018e-11
	1.144329075941641e-10
	2.469988658049260e-09
	1.842437313825940e-11
	2.612606874063570e-09

 12	1.200000000000000e-01
	0.000000000000000e+00
	0.000000000000000e+00
	0.000000000000000e+00
	1.544569224474040e-10
	0.000000000000000e+00
	0.000000000000000e+00
	0.000000000000000e+00
	2.157506300696437e-11
	0.000000000000000e+00
	0.000000000000000e+00
	0.000000000000000e+00
	3.152557859942257e-09
	0.000000000000000e+00
	0.000000000000000e+00
	0.000000000000000e+00
	2.209646093201140e-11
	0.000000000000000e+00
	0.000000000000000e+00
	0.000000000000000e+00
	1.800000000000000e+00
	1.200000000000000e-01
	2.509363659716353e-11
	5.779488000713212e-11
	1.254681829832023e-11
	2.293697112981719e-11
	5.671600809164077e-11
	1.146848556455726e-11
	6.085105736251829e-11
	7.567359038718788e-11
	3.042552868323664e-11
	2.302151928915032e-11
	5.675828217130590e-11
	1.151075964422294e-11
	1.800000000000000e+00
	1.800000000000000e+00
	1.800000000000000e+00
	1.800000000000000e+00
	0.000000000000000e+00
	0.000000000000000e+00
	8.895950744969858e-12
	-3.359602374075621e-09
	0.000000000000000e+00
	2.339817228858010e-11
	1.563762452860828e-10
	3.155896877160558e-09
	2.393107934040017e-11
	3.350686306328597e-09

 13	1.300000000000000e-01
	0.000000000000000e+00
	0.000000000000000e+00
	0.000000000000000e+00
	2.118890379906368e-10
	0.000000000000000e+00
	0.000000000000000e+00
	0.000000000000000e+00
	2.825467051794049e-11
	0.000000000000000e+00
	0.000000000000000e+00
	0.000000000000000e+00
	4.027906838202925e-09
	0.000000000000000e+00
	0.000000000000000e+00
	0.000000000000000e+00
	2.941209819902055e-11
	0.000000000000000e+00
	0.000000000000000e+00
	0.000000000000000e+00
	1.800000000000000e+00
	1.300000000000000e-01
	2.601189371270788e-11
	5.825400856485116e-11
	1.300594685613151e-11
	2.303394015964702e-11
	5.676449260654962e-11
	1.151697007947688e-11
	7.146456088938753e-11
	8.098034214985489e-11
	3.573228044732218e-11
	2.315320794973151e-11
	5.682412650158955e-11
	1.157660397451828e-11
	1.800000000000000e+00
	1.800000000000000e+00
	1.800000000000000e+00
	1.800000000000000e+00
	0.000000000000000e+00
	0.000000000000000e+00
	9.366367478303680e-12
	-4.306848211399483e-09
	0.000000000000000e+00
	3.009148485944024e-11
	2.138378363270022e-10
	4.031683431549027e-09
	3.123545866401400e-11
	4.297462644910507e-09

 14	1.400000000000000e-01
	0.000000000000000e+00
	0.000000000000000e+00
	0.000000000000000e+00
	2.905564240563630e-10
	0.000000000000000e+00
	0.000000000000000e+00
	0.000000000000000e+00
	3.699916381326107e-11
	0.000000000000000e+00
	0.000000000000000e+00
	0.000000000000000e+00
	5.145232489255553e-09
	0.000000000000000e+00
	0.000000000000000e+00
	0.000000000000000e+00
	3.914921815967646e-11
	0.000000000000000e+00
	0.000000000000000e+00
	0.000000000000000e+00
	1.800000000000000e+00
	1.400000000000000e-01
	2.726965231687364e-11
	5.888288786686124e-11
	1.363482615826796e-11
	2.316088529697609e-11
	5.682796517520623e-11
	1.158044264814757e-11
	8.501154164027777e-11
	8.775383252432021e-11
	4.250577082359816e-11
	2.332848567532978e-11
	5.691176536437942e-11
	1.166424283732372e-11
	1.800000000000000e+00
	1.800000000000000e+00
	1.800000000000000e+00
	1.800000000000000e+00
	0.000000000000000e+00
	0.000000000000000e+00
	9.970645967049768e-12
	-5.521926027540758e-09
	0.000000000000000e+00
	3.883116050928948e-11
	2.925588660218637e-10
	5.149544790583604e-09
	4.099121042600018e-11
	5.511937295284707e-09

 15	1.500000000000000e-01
	0.000000000000000e+00
	0.000000000000000e+00
	0.000000000000000e+00
	3.982390788823555e-10
	0.000000000000000e+00
	0.000000000000000e+00
	0.000000000000000e+00
	4.844532515822115e-11
	0.000000000000000e+00
	0.000000000000000e+00
	0.000000000000000e+00
	6.570959141712407e-09
	0.000000000000000e+00
	0.000000000000000e+00
	0.000000000000000e+00
	5.210903541125708e-11
	0.000000000000000e+00
	0.000000000000000e+00
	0.000000000000000e+00
	1.800000000000000e+00
	1.500000000000000e-01
	2.899127854045552e-11
	5.974370097855254e-11
	1.449563927013223e-11
	2.332705061639634e-11
	5.691104783490598e-11
	1.166352530786576e-11
	1.022969695081012e-10
	9.639654645698173e-11
	5.114848475857009e-11
	2.356177511249826e-11
	5.702841008295133e-11
	1.178088755591636e-11
	1.800000000000000e+00
	1.800000000000000e+00
	1.800000000000000e+00
	1.800000000000000e+00
	0.000000000000000e+00
	0.000000000000000e+00
	1.074690632100389e-11
	-7.080522834712610e-09
	0.000000000000000e+00
	5.028510940974229e-11
	4.003126718998828e-10
	6.575959332622006e-09
	5.396572078097961e-11
	7.069752581164053e-09

 16	1.600000000000000e-01
	0.000000000000000e+00
	0.000000000000000e+00
	0.000000000000000e+00
	5.455249454578160e-10
	0.000000000000000e+00
	0.000000000000000e+00
	0.000000000000000e+00
	6.342554997228562e-11
	0.000000000000000e+00
	0.000000000000000e+00
	0.000000000000000e+00
	8.389545356962661e-09
	0.000000000000000e+00
	0.000000000000000e+00
	0.000000000000000e+00
	6.935770912682917e-11
	0.000000000000000e+00
	0.000000000000000e+00
	0.000000000000000e+00
	1.800000000000000e+00
	1.600000000000000e-01
	3.134600923104871e-11
	6.092106632371286e-11
	1.567300461552913e-11
	2.354451977786723e-11
	5.701978241562784e-11
	1.177225988861176e-11
	1.243441816080046e-10
	1.074201525053387e-10
	6.217209080987414e-11
	2.387226816738380e-11
	5.718365661037772e-11
	1.193613408337031e-11
	1.800000000000000e+00
	1.800000000000000e+00
	1.800000000000000e+00
	1.800000000000000e+00
	0.000000000000000e+00
	0.000000000000000e+00
	1.174410252132214e-11
	-9.079599294636864e-09
	0.000000000000000e+00
	6.527045570692280e-11
	5.476863407238852e-10
	8.395431905228179e-09
	7.121059297787724e-11
	9.067853561519384e-09

 17	1.700000000000000e-01
	0.000000000000000e+00
	0.000000000000000e+00
	0.000000000000000e+00
	7.467985521291814e-10
	0.000000000000000e+00
	0.000000000000000e+00
	0.000000000000000e+00
	8.302756250258867e-11
	0.000000000000000e+00
	0.000000000000000e+00
	0.000000000000000e+00
	1.070829621750126e-08
	0.000000000000000e+00
	0.000000000000000e+00
	0.000000000000000e+00
	9.231386933328595e-11
	0.000000000000000e+00
	0.000000000000000e+00
	0.000000000000000e+00
	1.800000000000000e+00
	1.700000000000000e-01
	3.456373704482194e-11
	6.252993023041322e-11
	1.728186852255281e-11
	2.382908280650048e-11
	5.716206392992668e-11
	1.191454140294220e-11
	1.524530376466346e-10
	1.214745805226204e-10
	7.622651883091347e-11
	2.428550156219210e-11
	5.739027330776004e-11
	1.214275078078934e-11
	1.800000000000000e+00
	1.800000000000000e+00
	1.800000000000000e+00
	1.800000000000000e+00
	0.000000000000000e+00
	0.000000000000000e+00
	1.302507773241260e-11
	-1.164347906978946e-08
	0.000000000000000e+00
	8.488143521390157e-11
	7.491038900298008e-10
	1.071529709406605e-08
	9.419665047971648e-11
	1.163043620146591e-08

 18	1.800000000000000e-01
	0.000000000000000e+00
	0.000000000000000e+00
	0.000000000000000e+00
	1.021563495772438e-09
	0.000000000000000e+00
	0.000000000000000e+00
	0.000000000000000e+00
	1.086721778842474e-10
	0.000000000000000e+00
	0.000000000000000e+00
	0.000000000000000e+00
	1.366342530038286e-08
	0.000000000000000e+00
	0.000000000000000e+00
	0.000000000000000e+00
	1.228650125333228e-10
	0.000000000000000e+00
	0.000000000000000e+00
	0.000000000000000e+00
	1.800000000000000e+00
	1.800000000000000e-01
	3.895611432219197e-11
	6.472611886884401e-11
	1.947805716142495e-11
	2.420136476593341e-11
	5.734820490961989e-11
	1.210068238267673e-11
	1.882731062810065e-10
	1.393846148372151e-10
	9.413655315029703e-11
	2.483545206622328e-11
	5.766524855974660e-11
	1.241772603282473e-11
	1.800000000000000e+00
	1.800000000000000e+00
	1.800000000000000e+00
	1.800000000000000e+00
	0.000000000000000e+00
	0.000000000000000e+00
	1.467046486749360e-11
	-1.493121715157031e-08
	0.000000000000000e+00
	1.105533442569140e-10
	1.024034190777456e-09
	1.367186541756382e-08
	1.247641989721160e-10
	1.491652598657265e-08

 19	1.900000000000000e-01
	0.000000000000000e+00
	0.000000000000000e+00
	0.000000000000000e+00
	1.396203503720722e-09
	0.000000000000000e+00
	0.000000000000000e+00
	0.000000000000000e+00
	1.422144753769254e-10
	0.000000000000000e+00
	0.000000000000000e+00
	0.000000000000000e+00
	1.742767729117982e-08
	0.000000000000000e+00
	0.000000000000000e+00
	0.000000000000000e+00
	1.635222644746605e-10
	0.000000000000000e+00
	0.000000000000000e+00
	0.000000000000000e+00
	1.800000000000000e+00
	1.900000000000000e-01
	4.494463448857362e-11
	6.772037895168820e-11
	2.247231724487092e-11
	2.468829414359389e-11
	5.759166959841971e-11
	1.234414707153059e-11
	2.338955783913985e-10
	1.621958508891105e-10
	1.169477892082925e-10
	2.556732236968036e-11
	5.803118371143648e-11
	1.278366118457961e-11
	1.800000000000000e+00
	1.800000000000000e+00
	1.800000000000000e+00
	1.800000000000000e+00
	0.000000000000000e+00
	0.000000000000000e+00
	1.678365654590268e-11
	-1.914640535005674e-08
	0.000000000000000e+00
	1.441051722395059e-10
	1.398902327309770e-09
	1.743794086905837e-08
	1.654569814490969e-10
	1.912961753475150e-08

 20	2.000000000000000e-01
	0.000000000000000e+00
	0.000000000000000e+00
	0.000000000000000e+00
	1.906315313533861e-09
	0.000000000000000e+00
	0.000000000000000e+00
	0.000000000000000e+00
	1.860752997159289e-10
	0.000000000000000e+00
	0.000000000000000e+00
	0.000000000000000e+00
	2.221989455030772e-08
	0.000000000000000e+00
	0.000000000000000e+00
	0.000000000000000e+00
	2.176261195629069e-10
	0.000000000000000e+00
	0.000000000000000e+00
	0.000000000000000e+00
	1.800000000000000e+00
	2.000000000000000e-01
	5.309779254509226e-11
	7.179695797947553e-11
	2.654889627347766e-11
	2.532501125445557e-11
	5.791002815381078e-11
	1.266250562699234e-11
	2.919684358780216e-10
	1.912322796282200e-10
	1.459842179551680e-10
	2.654124458084571e-11
	5.851814481696773e-11
	1.327062229019735e-11
	1.800000000000000e+00
	1.800000000000000e+00
	1.800000000000000e+00
	1.800000000000000e+00
	0.000000000000000e+00
	0.000000000000000e+00
	1.949712274062935e-11
	-2.454942205076804e-08
	0.000000000000000e+00
	1.879953970274073e-10
	1.909349123252468e-09
	2.223248429800151e-08
	2.195932324866590e-10
	2.452991128311988e-08

 21	2.100000000000000e-01
	0.000000000000000e+00
	0.000000000000000e+00
	0.000000000000000e+00
	2.599780575773958e-09
	0.000000000000000e+00
	0.000000000000000e+00
	0.000000000000000e+00
	2.434119885387940e-10
	0.000000000000000e+00
	0.000000000000000e+00
	0.000000000000000e+00
	2.831699848962269e-08
	0.000000000000000e+00
	0.000000000000000e+00
	0.000000000000000e+00
	2.896198906215695e-10
	0.000000000000000e+00
	0.000000000000000e+00
	0.000000000000000e+00
	1.800000000000000e+00
	2.100000000000000e-01
	6.417994627690524e-11
	7.733803484474042e-11
	3.208997313985647e-11
	2.615734565317692e-11
	5.832619535311945e-11
	1.307867282639340e-11
	3.658403953130554e-10
	2.281682593403910e-10
	1.829201976772197e-10
	2.783720256482779e-11
	5.916612380889034e-11
	1.391860128223505e-11
	1.800000000000000e+00
	1.800000000000000e+00
	1.800000000000000e+00
	1.800000000000000e+00
	0.000000000000000e+00
	0.000000000000000e+00
	2.298041896276524e-11
	-3.147281546489467e-08
	0.000000000000000e+00
	2.453788283673930e-10
	2.603250948141067e-09
	2.833254342249347e-08
	2.916422658927331e-10
	3.144981094455614e-08

 22	2.200000000000001e-01
	0.000000000000000e+00
	0.000000000000000e+00
	0.000000000000000e+00
	3.540783275082459e-09
	0.000000000000000e+00
	0.000000000000000e+00
	0.000000000000000e+00
	3.183397428649683e-10
	0.000000000000000e+00
	0.000000000000000e+00
	0.000000000000000e+00
	3.606896214075984e-08
	0.000000000000000e+00
	0.000000000000000e+00
	0.000000000000000e+00
	3.854130651698941e-10
	0.000000000000000e+00
	0.000000000000000e+00
	0.000000000000000e+00
	1.800000000000000e+00
	2.200000000000001e-01
	7.921508736888033e-11
	8.485560538985735e-11
	3.960754368648499e-11
	2.724502798560560e-11
	5.887003651926583e-11
	1.362251399266053e-11
	4.597403135092603e-10
	2.751182184316968e-10
	2.298701567810881e-10
	2.956157266809173e-11
	6.002830886043125e-11
	1.478078633392909e-11
	1.800000000000000e+00
	1.800000000000000e+00
	1.800000000000000e+00
	1.800000000000000e+00
	0.000000000000000e+00
	0.000000000000000e+00
	2.745030343191755e-11
	-4.034097145222404e-08
	0.000000000000000e+00
	3.203410869900836e-10
	3.544862181570352e-09
	3.608825949186212e-08
	3.875086918014858e-10
	4.031349822387570e-08

 23	2.300000000000001e-01
	0.000000000000000e+00
	0.000000000000000e+00
	0.000000000000000e+00
	4.815022932016207e-09
	0.000000000000000e+00
	0.000000000000000e+00
	0.000000000000000e+00
	4.162182472519498e-10
	0.000000000000000e+00
	0.000000000000000e+00
	0.000000000000000e+00
	4.591747710652832e-08
	0.000000000000000e+00
	0.000000000000000e+00
	0.000000000000000e+00
	5.128639936811028e-10
	0.000000000000000e+00
	0.000000000000000e+00
	0.000000000000000e+00
	1.800000000000000e+00
	2.300000000000001e-01
	9.956936046070749e-11
	9.503274193459209e-11
	4.978468023326660e-11
	2.866584779909639e-11
	5.958044642592247e-11
	1.433292389947488e-11
	5.790001040199456e-10
	3.347481136784050e-10
	2.895000520437565e-10
	3.185581250072830e-11
	6.117542877662839e-11
	1.592790625032997e-11
	1.800000000000000e+00
	1.800000000000000e+00
	1.800000000000000e+00
	1.800000000000000e+00
	0.000000000000000e+00
	0.000000000000000e+00
	3.318346836211625e-11
	-5.169479067035354e-08
	0.000000000000000e+00
	4.182822976872558e-10
	4.819909804609779e-09
	4.594154745518608e-08
	5.150511128704238e-10
	5.166158227947595e-08

 24	2.400000000000001e-01
	0.000000000000000e+00
	0.000000000000000e+00
	0.000000000000000e+00
	6.536420269180104e-09
	0.000000000000000e+00
	0.000000000000000e+00
	0.000000000000000e+00
	5.440221658522121e-10
	0.000000000000000e+00
	0.000000000000000e+00
	0.000000000000000e+00
	5.841917021143275e-08
	0.000000000000000e+00
	0.000000000000000e+00
	0.000000000000000e+00
	6.824208941791546e-10
	0.000000000000000e+00
	0.000000000000000e+00
	0.000000000000000e+00
	1.800000000000000e+00
	2.400000000000001e-01
	1.270567881952467e-10
	1.087764558002693e-10
	6.352839410170903e-11
	3.052102681999703e-11
	6.050803593625688e-11
	1.526051341001523e-11
	7.303307835123803e-10
	4.104134534136627e-10
	3.651653917992743e-10
	3.490799950608593e-11
	6.270152227914604e-11
	1.745399975311867e-11
	1.800000000000000e+00
	1.800000000000000e+00
	1.800000000000000e+00
	1.800000000000000e+00
	0.000000000000000e+00
	0.000000000000000e+00
	4.053248729256986e-11
	-6.622259007826869e-08
	0.000000000000000e+00
	5.461586738420010e-10
	6.542407504639414e-09
	5.844929518161734e-08
	6.847287181699357e-10
	6.618203354064242e-08

 25	2.500000000000001e-01
	0.000000000000000e+00
	0.000000000000000e+00
	0.000000000000000e+00
	8.855658100769440e-09
	0.000000000000000e+00