Title: * spicenetlist
Date: Mon Nov 25 10:52:59  2019
Plotname: DC transfer characteristic
Flags: real
No. Variables: 4
No. Points: 501
Variables:
	0	v-sweep	voltage
	1	i(i(v_vcur_1))	current
	2	i(i(v_v2))	current
	3	i(i(v_v1))	current
Values:
 0	0.000000000000000e+000
	0.000000000000000e+000
	0.000000000000000e+000
	0.000000000000000e+000

 1	4.000000000000001e-002
	4.017805020224898e-014
	-4.017805020224898e-014
	0.000000000000000e+000

 2	8.000000000000002e-002
	8.010118467293996e-014
	-8.010118467293996e-014
	0.000000000000000e+000

 3	1.200000000000000e-001
	1.201037089056370e-013
	-1.201037089056370e-013
	0.000000000000000e+000

 4	1.600000000000000e-001
	1.601043233570172e-013
	-1.601043233570172e-013
	0.000000000000000e+000

 5	2.000000000000000e-001
	2.001045421681358e-013
	-2.001045421681358e-013
	0.000000000000000e+000

 6	2.400000000000001e-001
	2.401046388861045e-013
	-2.401046388861045e-013
	0.000000000000000e+000

 7	2.800000000000000e-001
	2.801046880770747e-013
	-2.801046880770747e-013
	0.000000000000000e+000

 8	3.200000000000001e-001
	3.201047156925272e-013
	-3.201047156925272e-013
	0.000000000000000e+000

 9	3.600000000000001e-001
	3.601047323762046e-013
	-3.601047323762046e-013
	0.000000000000000e+000

 10	4.000000000000001e-001
	4.001047430439171e-013
	-4.001047430439171e-013
	0.000000000000000e+000

 11	4.400000000000002e-001
	4.401047501803220e-013
	-4.401047501803220e-013
	0.000000000000000e+000

 12	4.800000000000002e-001
	4.801047551336634e-013
	-4.801047551336634e-013
	0.000000000000000e+000

 13	5.200000000000002e-001
	5.201047586787642e-013
	-5.201047586787642e-013
	0.000000000000000e+000

 14	5.600000000000003e-001
	5.601047612825349e-013
	-5.601047612825349e-013
	0.000000000000000e+000

 15	6.000000000000003e-001
	6.001047632377792e-013
	-6.001047632377792e-013
	0.000000000000000e+000

 16	6.400000000000004e-001
	6.401047647344666e-013
	-6.401047647344666e-013
	0.000000000000000e+000

 17	6.800000000000004e-001
	6.801047658995176e-013
	-6.801047658995176e-013
	0.000000000000000e+000

 18	7.200000000000004e-001
	7.201047668199264e-013
	-7.201047668199264e-013
	0.000000000000000e+000

 19	7.600000000000005e-001
	7.601047675566791e-013
	-7.601047675566791e-013
	0.000000000000000e+000

 20	8.000000000000005e-001
	8.001047681533907e-013
	-8.001047681533907e-013
	0.000000000000000e+000

 21	8.400000000000005e-001
	8.401047686418145e-013
	-8.401047686418145e-013
	0.000000000000000e+000

 22	8.800000000000006e-001
	8.801047690454415e-013
	-8.801047690454415e-013
	0.000000000000000e+000

 23	9.200000000000006e-001
	9.201047693819034e-013
	-9.201047693819034e-013
	0.000000000000000e+000

 24	9.600000000000006e-001
	9.601047696646094e-013
	-9.601047696646094e-013
	0.000000000000000e+000

 25	1.000000000000001e+000
	1.000104769903880e-012
	-1.000104769903880e-012
	0.000000000000000e+000

 26	1.040000000000001e+000
	1.040104770107747e-012
	-1.040104770107747e-012
	0.000000000000000e+000

 27	1.080000000000001e+000
	1.080104770282524e-012
	-1.080104770282524e-012
	0.000000000000000e+000

 28	1.120000000000001e+000
	1.120104770433219e-012
	-1.120104770433219e-012
	0.000000000000000e+000

 29	1.160000000000001e+000
	1.160104770563841e-012
	-1.160104770563841e-012
	0.000000000000000e+000

 30	1.200000000000001e+000
	1.200104770677624e-012
	-1.200104770677624e-012
	0.000000000000000e+000

 31	1.240000000000001e+000
	1.240104770777197e-012
	-1.240104770777197e-012
	0.000000000000000e+000

 32	1.280000000000001e+000
	1.280104770864710e-012
	-1.280104770864710e-012
	0.000000000000000e+000

 33	1.320000000000001e+000
	1.320104770941936e-012
	-1.320104770941936e-012
	0.000000000000000e+000

 34	1.360000000000001e+000
	1.360104771010342e-012
	-1.360104771010342e-012
	0.000000000000000e+000

 35	1.400000000000001e+000
	1.400104771071152e-012
	-1.400104771071152e-012
	0.000000000000000e+000

 36	1.440000000000001e+000
	1.440104771125393e-012
	-1.440104771125393e-012
	0.000000000000000e+000

 37	1.480000000000001e+000
	1.480104771173928e-012
	-1.480104771173928e-012
	0.000000000000000e+000

 38	1.520000000000001e+000
	1.520104771217487e-012
	-1.520104771217487e-012
	0.000000000000000e+000

 39	1.560000000000001e+000
	1.560104771256693e-012
	-1.560104771256693e-012
	0.000000000000000e+000

 40	1.600000000000001e+000
	1.600104771292077e-012
	-1.600104771292077e-012
	0.000000000000000e+000

 41	1.640000000000001e+000
	1.640104771324092e-012
	-1.640104771324092e-012
	0.000000000000000e+000

 42	1.680000000000001e+000
	1.680104771353130e-012
	-1.680104771353130e-012
	0.000000000000000e+000

 43	1.720000000000001e+000
	1.720104771379530e-012
	-1.720104771379530e-012
	0.000000000000000e+000

 44	1.760000000000001e+000
	1.760104771403583e-012
	-1.760104771403583e-012
	0.000000000000000e+000

 45	1.800000000000001e+000
	1.800104771425547e-012
	-1.800104771425547e-012
	0.000000000000000e+000

 46	1.840000000000001e+000
	1.840104771445641e-012
	-1.840104771445641e-012
	0.000000000000000e+000

 47	1.880000000000001e+000
	1.880104771464062e-012
	-1.880104771464062e-012
	0.000000000000000e+000

 48	1.920000000000002e+000
	1.920104771480980e-012
	-1.920104771480980e-012
	0.000000000000000e+000

 49	1.960000000000002e+000
	1.960104771496544e-012
	-1.960104771496544e-012
	0.000000000000000e+000

 50	2.000000000000001e+000
	2.000104771510888e-012
	-2.000104771510888e-012
	0.000000000000000e+000

 51	2.040000000000001e+000
	2.040104771524130e-012
	-2.040104771524130e-012
	0.000000000000000e+000

 52	2.080000000000001e+000
	2.080104771536372e-012
	-2.080104771536372e-012
	0.000000000000000e+000

 53	2.120000000000001e+000
	2.120104771547707e-012
	-2.120104771547707e-012
	0.000000000000000e+000

 54	2.160000000000002e+000
	2.160104771558219e-012
	-2.160104771558219e-012
	0.000000000000000e+000

 55	2.200000000000002e+000
	2.200104771567980e-012
	-2.200104771567980e-012
	0.000000000000000e+000

 56	2.240000000000002e+000
	2.240104771577056e-012
	-2.240104771577056e-012
	0.000000000000000e+000

 57	2.280000000000002e+000
	2.280104771585507e-012
	-2.280104771585507e-012
	0.000000000000000e+000

 58	2.320000000000002e+000
	2.320104771593384e-012
	-2.320104771593384e-012
	0.000000000000000e+000

 59	2.360000000000002e+000
	2.360104771600737e-012
	-2.360104771600737e-012
	0.000000000000000e+000

 60	2.400000000000002e+000
	2.400104771607607e-012
	-2.400104771607607e-012
	0.000000000000000e+000

 61	2.440000000000002e+000
	2.440104771614034e-012
	-2.440104771614034e-012
	0.000000000000000e+000

 62	2.480000000000002e+000
	2.480104771620054e-012
	-2.480104771620054e-012
	0.000000000000000e+000

 63	2.520000000000002e+000
	2.520104771625697e-012
	-2.520104771625697e-012
	0.000000000000000e+000

 64	2.560000000000002e+000
	2.560104771630993e-012
	-2.560104771630993e-012
	0.000000000000000e+000

 65	2.600000000000002e+000
	2.600104771635969e-012
	-2.600104771635969e-012
	0.000000000000000e+000

 66	2.640000000000002e+000
	2.640104771640647e-012
	-2.640104771640647e-012
	0.000000000000000e+000

 67	2.680000000000002e+000
	2.680104771645050e-012
	-2.680104771645050e-012
	0.000000000000000e+000

 68	2.720000000000002e+000
	2.720104771649198e-012
	-2.720104771649198e-012
	0.000000000000000e+000

 69	2.760000000000002e+000
	2.760104771653109e-012
	-2.760104771653109e-012
	0.000000000000000e+000

 70	2.800000000000002e+000
	2.800104771656799e-012
	-2.800104771656799e-012
	0.000000000000000e+000

 71	2.840000000000002e+000
	2.840104771660285e-012
	-2.840104771660285e-012
	0.000000000000000e+000

 72	2.880000000000002e+000
	2.880104771663580e-012
	-2.880104771663580e-012
	0.000000000000000e+000

 73	2.920000000000002e+000
	2.920104771666696e-012
	-2.920104771666696e-012
	0.000000000000000e+000

 74	2.960000000000002e+000
	2.960104771669646e-012
	-2.960104771669646e-012
	0.000000000000000e+000

 75	3.000000000000002e+000
	3.000104771672442e-012
	-3.000104771672442e-012
	0.000000000000000e+000

 76	3.040000000000002e+000
	3.040104771675091e-012
	-3.040104771675091e-012
	0.000000000000000e+000

 77	3.080000000000002e+000
	3.080104771677606e-012
	-3.080104771677606e-012
	0.000000000000000e+000

 78	3.120000000000002e+000
	3.120104771679992e-012
	-3.120104771679992e-012
	0.000000000000000e+000

 79	3.160000000000002e+000
	3.160104771682260e-012
	-3.160104771682260e-012
	0.000000000000000e+000

 80	3.200000000000002e+000
	3.200104771684416e-012
	-3.200104771684416e-012
	0.000000000000000e+000

 81	3.240000000000002e+000
	3.240104771686466e-012
	-3.240104771686466e-012
	0.000000000000000e+000

 82	3.280000000000003e+000
	3.280104771688418e-012
	-3.280104771688418e-012
	0.000000000000000e+000

 83	3.320000000000003e+000
	3.320104771690276e-012
	-3.320104771690276e-012
	0.000000000000000e+000

 84	3.360000000000003e+000
	3.360104771692048e-012
	-3.360104771692048e-012
	0.000000000000000e+000

 85	3.400000000000003e+000
	3.400104771693736e-012
	-3.400104771693736e-012
	0.000000000000000e+000

 86	3.440000000000003e+000
	3.440104771695348e-012
	-3.440104771695348e-012
	0.000000000000000e+000

 87	3.480000000000003e+000
	3.480104771696886e-012
	-3.480104771696886e-012
	0.000000000000000e+000

 88	3.520000000000003e+000
	3.520104771698355e-012
	-3.520104771698355e-012
	0.000000000000000e+000

 89	3.560000000000003e+000
	3.560104771699758e-012
	-3.560104771699758e-012
	0.000000000000000e+000

 90	3.600000000000003e+000
	3.600104771701100e-012
	-3.600104771701100e-012
	0.000000000000000e+000

 91	3.640000000000003e+000
	3.640104771702384e-012
	-3.640104771702384e-012
	0.000000000000000e+000

 92	3.680000000000003e+000
	3.680104771703612e-012
	-3.680104771703612e-012
	0.000000000000000e+000

 93	3.720000000000003e+000
	3.720104771704789e-012
	-3.720104771704789e-012
	0.000000000000000e+000

 94	3.760000000000003e+000
	3.760104771705915e-012
	-3.760104771705915e-012
	0.000000000000000e+000

 95	3.800000000000003e+000
	3.800104771706995e-012
	-3.800104771706995e-012
	0.000000000000000e+000

 96	3.840000000000003e+000
	3.840104771708030e-012
	-3.840104771708030e-012
	0.000000000000000e+000

 97	3.880000000000003e+000
	3.880104771709023e-012
	-3.880104771709023e-012
	0.000000000000000e+000

 98	3.920000000000003e+000
	3.920104771709976e-012
	-3.920104771709976e-012
	0.000000000000000e+000

 99	3.960000000000003e+000
	3.960104771710891e-012
	-3.960104771710891e-012
	0.000000000000000e+000

 100	4.000000000000003e+000
	4.000104771711768e-012
	-4.000104771711768e-012
	0.000000000000000e+000

 101	4.040000000000003e+000
	4.040104771712613e-012
	-4.040104771712613e-012
	0.000000000000000e+000

 102	4.080000000000003e+000
	4.080104771713424e-012
	-4.080104771713424e-012
	0.000000000000000e+000

 103	4.120000000000003e+000
	4.120104771714204e-012
	-4.120104771714204e-012
	0.000000000000000e+000

 104	4.160000000000003e+000
	4.160104771714955e-012
	-4.160104771714955e-012
	0.000000000000000e+000

 105	4.200000000000003e+000
	4.200104771715676e-012
	-4.200104771715676e-012
	0.000000000000000e+000

 106	4.240000000000003e+000
	4.240104771716371e-012
	-4.240104771716371e-012
	0.000000000000000e+000

 107	4.280000000000003e+000
	4.280104771717041e-012
	-4.280104771717041e-012
	0.000000000000000e+000

 108	4.320000000000003e+000
	4.320104771717685e-012
	-4.320104771717685e-012
	0.000000000000000e+000

 109	4.360000000000003e+000
	4.360104771718306e-012
	-4.360104771718306e-012
	0.000000000000000e+000

 110	4.400000000000003e+000
	4.400104771718906e-012
	-4.400104771718906e-012
	0.000000000000000e+000

 111	4.440000000000003e+000
	4.440104771719484e-012
	-4.440104771719484e-012
	0.000000000000000e+000

 112	4.480000000000003e+000
	4.480104771720040e-012
	-4.480104771720040e-012
	0.000000000000000e+000

 113	4.520000000000003e+000
	4.520104771720578e-012
	-4.520104771720578e-012
	0.000000000000000e+000

 114	4.560000000000003e+000
	4.560104771721097e-012
	-4.560104771721097e-012
	0.000000000000000e+000

 115	4.600000000000003e+000
	4.600104771721598e-012
	-4.600104771721598e-012
	0.000000000000000e+000

 116	4.640000000000003e+000
	4.640104771722082e-012
	-4.640104771722082e-012
	0.000000000000000e+000

 117	4.680000000000003e+000
	4.680104771722549e-012
	-4.680104771722549e-012
	0.000000000000000e+000

 118	4.720000000000003e+000
	4.720104771723000e-012
	-4.720104771723000e-012
	0.000000000000000e+000

 119	4.760000000000003e+000
	4.760104771723437e-012
	-4.760104771723437e-012
	0.000000000000000e+000

 120	4.800000000000003e+000
	4.800104771723860e-012
	-4.800104771723860e-012
	0.000000000000000e+000

 121	4.840000000000003e+000
	4.840104771724268e-012
	-4.840104771724268e-012
	0.000000000000000e+000

 122	4.880000000000003e+000
	4.880104771724663e-012
	-4.880104771724663e-012
	0.000000000000000e+000

 123	4.920000000000004e+000
	4.920104771725046e-012
	-4.920104771725046e-012
	0.000000000000000e+000

 124	4.960000000000004e+000
	4.960104771725416e-012
	-4.960104771725416e-012
	0.000000000000000e+000

 125	5.000000000000004e+000
	5.000104771725774e-012
	-5.000104771725774e-012
	0.000000000000000e+000

 126	5.040000000000004e+000
	5.040104771726122e-012
	-5.040104771726122e-012
	0.000000000000000e+000

 127	5.080000000000004e+000
	5.080104771726458e-012
	-5.080104771726458e-012
	0.000000000000000e+000

 128	5.120000000000004e+000
	5.120104771726783e-012
	-5.120104771726783e-012
	0.000000000000000e+000

 129	5.160000000000004e+000
	5.160104771727100e-012
	-5.160104771727100e-012
	0.000000000000000e+000

 130	5.200000000000004e+000
	5.200104771727406e-012
	-5.200104771727406e-012
	0.000000000000000e+000

 131	5.240000000000004e+000
	5.240104771727703e-012
	-5.240104771727703e-012
	0.000000000000000e+000

 132	5.280000000000004e+000
	5.280104771727991e-012
	-5.280104771727991e-012
	0.000000000000000e+000

 133	5.320000000000004e+000
	5.320104771728270e-012
	-5.320104771728270e-012
	0.000000000000000e+000

 134	5.360000000000004e+000
	5.360104771728541e-012
	-5.360104771728541e-012
	0.000000000000000e+000

 135	5.400000000000004e+000
	5.400104771728805e-012
	-5.400104771728805e-012
	0.000000000000000e+000

 136	5.440000000000004e+000
	5.440104771729060e-012
	-5.440104771729060e-012
	0.000000000000000e+000

 137	5.480000000000004e+000
	5.480104771729308e-012
	-5.480104771729308e-012
	0.000000000000000e+000

 138	5.520000000000004e+000
	5.520104771729549e-012
	-5.520104771729549e-012
	0.000000000000000e+000

 139	5.560000000000004e+000
	5.560104771729783e-012
	-5.560104771729783e-012
	0.000000000000000e+000

 140	5.600000000000004e+000
	5.600104771730011e-012
	-5.600104771730011e-012
	0.000000000000000e+000

 141	5.640000000000004e+000
	5.640104771730232e-012
	-5.640104771730232e-012
	0.000000000000000e+000

 142	5.680000000000004e+000
	5.680104771730447e-012
	-5.680104771730447e-012
	0.000000000000000e+000

 143	5.720000000000004e+000
	5.720104771730655e-012
	-5.720104771730655e-012
	0.000000000000000e+000

 144	5.760000000000004e+000
	5.760104771730859e-012
	-5.760104771730859e-012
	0.000000000000000e+000

 145	5.800000000000004e+000
	5.800104771731056e-012
	-5.800104771731056e-012
	0.000000000000000e+000

 146	5.840000000000004e+000
	5.840104771731248e-012
	-5.840104771731248e-012
	0.000000000000000e+000

 147	5.880000000000004e+000
	5.880104771731435e-012
	-5.880104771731435e-012
	0.000000000000000e+000

 148	5.920000000000004e+000
	5.920104771731617e-012
	-5.920104771731617e-012
	0.000000000000000e+000

 149	5.960000000000004e+000
	5.960104771731794e-012
	-5.960104771731794e-012
	0.000000000000000e+000

 150	6.000000000000004e+000
	6.000104771731966e-012
	-6.000104771731966e-012
	0.000000000000000e+000

 151	6.040000000000005e+000
	6.040104771732135e-012
	-6.040104771732135e-012
	0.000000000000000e+000

 152	6.080000000000005e+000
	6.080104771732298e-012
	-6.080104771732298e-012
	0.000000000000000e+000

 153	6.120000000000005e+000
	6.120104771732457e-012
	-6.120104771732457e-012
	0.000000000000000e+000

 154	6.160000000000005e+000
	6.160104771732613e-012
	-6.160104771732613e-012
	0.000000000000000e+000

 155	6.200000000000005e+000
	6.200104771732764e-012
	-6.200104771732764e-012
	0.000000000000000e+000

 156	6.240000000000005e+000
	6.240104771732910e-012
	-6.240104771732910e-012
	0.000000000000000e+000

 157	6.280000000000005e+000
	6.280104771733055e-012
	-6.280104771733055e-012
	0.000000000000000e+000

 158	6.320000000000005e+000
	6.320104771733194e-012
	-6.320104771733194e-012
	0.000000000000000e+000

 159	6.360000000000005e+000
	6.360104771733331e-012
	-6.360104771733331e-012
	0.000000000000000e+000

 160	6.400000000000005e+000
	6.400104771733465e-012
	-6.400104771733465e-012
	0.000000000000000e+000

 161	6.440000000000005e+000
	6.440104771733594e-012
	-6.440104771733594e-012
	0.000000000000000e+000

 162	6.480000000000005e+000
	6.480104771733720e-012
	-6.480104771733720e-012
	0.000000000000000e+000

 163	6.520000000000005e+000
	6.520104771733845e-012
	-6.520104771733845e-012
	0.000000000000000e+000

 164	6.560000000000005e+000
	6.560104771733965e-012
	-6.560104771733965e-012
	0.000000000000000e+000

 165	6.600000000000005e+000
	6.600104771734083e-012
	-6.600104771734083e-012
	0.000000000000000e+000

 166	6.640000000000005e+000
	6.640104771734198e-012
	-6.640104771734198e-012
	0.000000000000000e+000

 167	6.680000000000005e+000
	6.680104771734309e-012
	-6.680104771734309e-012
	0.000000000000000e+000

 168	6.720000000000005e+000
	6.720104771734419e-012
	-6.720104771734419e-012
	0.000000000000000e+000

 169	6.760000000000005e+000
	6.760104771734526e-012
	-6.760104771734526e-012
	0.000000000000000e+000

 170	6.800000000000005e+000
	6.800104771734630e-012
	-6.800104771734630e-012
	0.000000000000000e+000

 171	6.840000000000005e+000
	6.840104771734732e-012
	-6.840104771734732e-012
	0.000000000000000e+000

 172	6.880000000000005e+000
	6.880104771734832e-012
	-6.880104771734832e-012
	0.000000000000000e+000

 173	6.920000000000005e+000
	6.920104771734929e-012
	-6.920104771734929e-012
	0.000000000000000e+000

 174	6.960000000000005e+000
	6.960104771735024e-012
	-6.960104771735024e-012
	0.000000000000000e+000

 175	7.000000000000005e+000
	7.000104771735117e-012
	-7.000104771735117e-012
	0.000000000000000e+000

 176	7.040000000000005e+000
	7.040104771735208e-012
	-7.040104771735208e-012
	0.000000000000000e+000

 177	7.080000000000005e+000
	7.080104771735296e-012
	-7.080104771735296e-012
	0.000000000000000e+000

 178	7.120000000000005e+000
	7.120104771735384e-012
	-7.120104771735384e-012
	0.000000000000000e+000

 179	7.160000000000006e+000
	7.160104771735469e-012
	-7.160104771735469e-012
	0.000000000000000e+000

 180	7.200000000000006e+000
	7.200104771735551e-012
	-7.200104771735551e-012
	0.000000000000000e+000

 181	7.240000000000006e+000
	7.240104771735633e-012
	-7.240104771735633e-012
	0.000000000000000e+000

 182	7.280000000000006e+000
	7.280104771735712e-012
	-7.280104771735712e-012
	0.000000000000000e+000

 183	7.320000000000006e+000
	7.320104771735790e-012
	-7.320104771735790e-012
	0.000000000000000e+000

 184	7.360000000000006e+000
	7.360104771735865e-012
	-7.360104771735865e-012
	0.000000000000000e+000

 185	7.400000000000006e+000
	7.400104771735940e-012
	-7.400104771735940e-012
	0.000000000000000e+000

 186	7.440000000000006e+000
	7.440104771736014e-012
	-7.440104771736014e-012
	0.000000000000000e+000

 187	7.480000000000006e+000
	7.480104771736084e-012
	-7.480104771736084e-012
	0.000000000000000e+000

 188	7.520000000000006e+000
	7.520104771736154e-012
	-7.520104771736154e-012
	0.000000000000000e+000

 189	7.560000000000006e+000
	7.560104771736222e-012
	-7.560104771736222e-012
	0.000000000000000e+000

 190	7.600000000000006e+000
	7.600104771736289e-012
	-7.600104771736289e-012
	0.000000000000000e+000

 191	7.640000000000006e+000
	7.640104771736355e-012
	-7.640104771736355e-012
	0.000000000000000e+000

 192	7.680000000000006e+000
	7.680104771736420e-012
	-7.680104771736420e-012
	0.000000000000000e+000

 193	7.720000000000006e+000
	7.720104771736482e-012
	-7.720104771736482e-012
	0.000000000000000e+000

 194	7.760000000000006e+000
	7.760104771736544e-012
	-7.760104771736544e-012
	0.000000000000000e+000

 195	7.800000000000006e+000
	7.800104771736604e-012
	-7.800104771736604e-012
	0.000000000000000e+000

 196	7.840000000000006e+000
	7.840104771736661e-012
	-7.840104771736661e-012
	0.000000000000000e+000

 197	7.880000000000006e+000
	7.880104771736720e-012
	-7.880104771736720e-012
	0.000000000000000e+000

 198	7.920000000000006e+000
	7.920104771736777e-012
	-7.920104771736777e-012
	0.000000000000000e+000

 199	7.960000000000006e+000
	7.960104771736831e-012
	-7.960104771736831e-012
	0.000000000000000e+000

 200	8.000000000000005e+000
	8.000104771736885e-012
	-8.000104771736885e-012
	0.000000000000000e+000

 201	8.040000000000005e+000
	8.040104771736938e-012
	-8.040104771736938e-012
	0.000000000000000e+000

 202	8.080000000000004e+000
	8.080104771736990e-012
	-8.080104771736990e-012
	0.000000000000000e+000

 203	8.120000000000003e+000
	8.120104771737041e-012
	-8.120104771737041e-012
	0.000000000000000e+000

 204	8.160000000000002e+000
	8.160104771737090e-012
	-8.160104771737090e-012
	0.000000000000000e+000

 205	8.200000000000001e+000
	8.200104771737139e-012
	-8.200104771737139e-012
	0.000000000000000e+000

 206	8.240000000000000e+000
	8.240104771737186e-012
	-8.240104771737186e-012
	0.000000000000000e+000

 207	8.279999999999999e+000
	8.280104771737232e-012
	-8.280104771737232e-012
	0.000000000000000e+000

 208	8.319999999999999e+000
	8.320104771737278e-012
	-8.320104771737278e-012
	0.000000000000000e+000

 209	8.359999999999998e+000
	8.360104771737322e-012
	-8.360104771737322e-012
	0.000000000000000e+000

 210	8.399999999999997e+000
	8.400104771737365e-012
	-8.400104771737365e-012
	0.000000000000000e+000

 211	8.439999999999996e+000
	8.440104771737411e-012
	-8.440104771737411e-012
	0.000000000000000e+000

 212	8.479999999999995e+000
	8.480104771737452e-012
	-8.480104771737452e-012
	0.000000000000000e+000

 213	8.519999999999994e+000
	8.520104771737493e-012
	-8.520104771737493e-012
	0.000000000000000e+000

 214	8.559999999999993e+000
	8.560104771737534e-012
	-8.560104771737534e-012
	0.000000000000000e+000

 215	8.599999999999993e+000
	8.600104771737573e-012
	-8.600104771737573e-012
	0.000000000000000e+000

 216	8.639999999999992e+000
	8.640104771737613e-012
	-8.640104771737613e-012
	0.000000000000000e+000

 217	8.679999999999991e+000
	8.680104771737651e-012
	-8.680104771737651e-012
	0.000000000000000e+000

 218	8.719999999999990e+000
	8.720104771737688e-012
	-8.720104771737688e-012
	0.000000000000000e+000

 219	8.759999999999989e+000
	8.760104771737725e-012
	-8.760104771737725e-012
	0.000000000000000e+000

 220	8.799999999999988e+000
	8.800104771737762e-012
	-8.800104771737762e-012
	0.000000000000000e+000

 221	8.839999999999987e+000
	8.840104771737799e-012
	-8.840104771737799e-012
	0.000000000000000e+000

 222	8.879999999999987e+000
	8.880104771737833e-012
	-8.880104771737833e-012
	0.000000000000000e+000

 223	8.919999999999986e+000
	8.920104771737868e-012
	-8.920104771737868e-012
	0.000000000000000e+000

 224	8.959999999999985e+000
	8.960104771737901e-012
	-8.960104771737901e-012
	0.000000000000000e+000

 225	8.999999999999984e+000
	9.000104771737934e-012
	-9.000104771737934e-012
	0.000000000000000e+000

 226	9.039999999999983e+000
	9.040104771737967e-012
	-9.040104771737967e-012
	0.000000000000000e+000

 227	9.079999999999982e+000
	9.080104771737998e-012
	-9.080104771737998e-012
	0.000000000000000e+000

 228	9.119999999999982e+000
	9.120104771738029e-012
	-9.120104771738029e-012
	0.000000000000000e+000

 229	9.159999999999981e+000
	9.160104771738061e-012
	-9.160104771738061e-012
	0.000000000000000e+000

 230	9.199999999999980e+000
	9.200104771738092e-012
	-9.200104771738092e-012
	0.000000000000000e+000

 231	9.239999999999979e+000
	9.240104771738120e-012
	-9.240104771738120e-012
	0.000000000000000e+000

 232	9.279999999999978e+000
	9.280104771738150e-012
	-9.280104771738150e-012
	0.000000000000000e+000

 233	9.319999999999977e+000
	9.320104771738178e-012
	-9.320104771738178e-012
	0.000000000000000e+000

 234	9.359999999999976e+000
	9.360104771738206e-012
	-9.360104771738206e-012
	0.000000000000000e+000

 235	9.399999999999976e+000
	9.400104771738234e-012
	-9.400104771738234e-012
	0.000000000000000e+000

 236	9.439999999999975e+000
	9.440104771738261e-012
	-9.440104771738261e-012
	0.000000000000000e+000

 237	9.479999999999974e+000
	9.480104771738287e-012
	-9.480104771738287e-012
	0.000000000000000e+000

 238	9.519999999999973e+000
	9.520104771738315e-012
	-9.520104771738315e-012
	0.000000000000000e+000

 239	9.559999999999972e+000
	9.560104771738340e-012
	-9.560104771738340e-012
	0.000000000000000e+000

 240	9.599999999999971e+000
	9.600104771738367e-012
	-9.600104771738367e-012
	0.000000000000000e+000

 241	9.639999999999970e+000
	9.640104771738390e-012
	-9.640104771738390e-012
	0.000000000000000e+000

 242	9.679999999999970e+000
	9.680104771738415e-012
	-9.680104771738415e-012
	0.000000000000000e+000

 243	9.719999999999969e+000
	9.720104771738439e-012
	-9.720104771738439e-012
	0.000000000000000e+000

 244	9.759999999999968e+000
	9.760104771738463e-012
	-9.760104771738463e-012
	0.000000000000000e+000

 245	9.799999999999967e+000
	9.800104771738486e-012
	-9.800104771738486e-012
	0.000000000000000e+000

 246	9.839999999999966e+000
	9.840104771738508e-012
	-9.840104771738508e-012
	0.000000000000000e+000

 247	9.879999999999965e+000
	9.880104771738533e-012
	-9.880104771738533e-012
	0.000000000000000e+000

 248	9.919999999999964e+000
	9.920104771738554e-012
	-9.920104771738554e-012
	0.000000000000000e+000

 249	9.959999999999964e+000
	9.960104771738576e-012
	-9.960104771738576e-012
	0.000000000000000e+000

 250	9.999999999999963e+000
	1.000010477173860e-011
	-1.000010477173860e-011
	0.000000000000000e+000

 251	1.003999999999996e+001
	1.004010477173862e-011
	-1.004010477173862e-011
	0.000000000000000e+000

 252	1.007999999999996e+001
	1.008010477173864e-011
	-1.008010477173864e-011
	0.000000000000000e+000

 253	1.011999999999996e+001
	1.012010477173866e-011
	-1.012010477173866e-011
	0.000000000000000e+000

 254	1.015999999999996e+001
	1.016010477173868e-011
	-1.016010477173868e-011
	0.000000000000000e+000

 255	1.019999999999996e+001
	1.020010477173870e-011
	-1.020010477173870e-011
	0.000000000000000e+000

 256	1.023999999999996e+001
	1.024010477173872e-011
	-1.024010477173872e-011
	0.000000000000000e+000

 257	1.027999999999996e+001
	1.028010477173874e-011
	-1.028010477173874e-011
	0.000000000000000e+000

 258	1.031999999999996e+001
	1.032010477173876e-011
	-1.032010477173876e-011
	0.000000000000000e+000

 259	1.035999999999996e+001
	1.036010477173877e-011
	-1.036010477173877e-011
	0.000000000000000e+000

 260	1.039999999999995e+001
	1.040010477173879e-011
	-1.040010477173879e-011
	0.000000000000000e+000

 261	1.043999999999995e+001
	1.044010477173881e-011
	-1.044010477173881e-011
	0.000000000000000e+000

 262	1.047999999999995e+001
	1.048010477173883e-011
	-1.048010477173883e-011
	0.000000000000000e+000

 263	1.051999999999995e+001
	1.052010477173885e-011
	-1.052010477173885e-011
	0.000000000000000e+000

 264	1.055999999999995e+001
	1.056010477173886e-011
	-1.056010477173886e-011
	0.000000000000000e+000

 265	1.059999999999995e+001
	1.060010477173888e-011
	-1.060010477173888e-011
	0.000000000000000e+000

 266	1.063999999999995e+001
	1.064010477173890e-011
	-1.064010477173890e-011
	0.000000000000000e+000

 267	1.067999999999995e+001
	1.068010477173891e-011
	-1.068010477173891e-011
	0.000000000000000e+000

 268	1.071999999999995e+001
	1.072010477173893e-011
	-1.072010477173893e-011
	0.000000000000000e+000

 269	1.075999999999995e+001
	1.076010477173894e-011
	-1.076010477173894e-011
	0.000000000000000e+000

 270	1.079999999999995e+001
	1.080010477173896e-011
	-1.080010477173896e-011
	0.000000000000000e+000

 271	1.083999999999995e+001
	1.084010477173897e-011
	-1.084010477173897e-011
	0.000000000000000e+000

 272	1.087999999999994e+001
	1.088010477173899e-011
	-1.088010477173899e-011
	0.000000000000000e+000

 273	1.091999999999994e+001
	1.092010477173900e-011
	-1.092010477173900e-011
	0.000000000000000e+000

 274	1.095999999999994e+001
	1.096010477173902e-011
	-1.096010477173902e-011
	0.000000000000000e+000

 275	1.099999999999994e+001
	1.100010477173903e-011
	-1.100010477173903e-011
	0.000000000000000e+000

 276	1.103999999999994e+001
	1.104010477173905e-011
	-1.104010477173905e-011
	0.000000000000000e+000

 277	1.107999999999994e+001
	1.108010477173906e-011
	-1.108010477173906e-011
	0.000000000000000e+000

 278	1.111999999999994e+001
	1.112010477173908e-011
	-1.112010477173908e-011
	0.000000000000000e+000

 279	1.115999999999994e+001
	1.116010477173909e-011
	-1.116010477173909e-011
	0.000000000000000e+000

 280	1.119999999999994e+001
	1.120010477173910e-011
	-1.120010477173910e-011
	0.000000000000000e+000

 281	1.123999999999994e+001
	1.124010477173912e-011
	-1.124010477173912e-011
	0.000000000000000e+000

 282	1.127999999999994e+001
	1.128010477173913e-011
	-1.128010477173913e-011
	0.000000000000000e+000

 283	1.131999999999994e+001
	1.132010477173914e-011
	-1.132010477173914e-011
	0.000000000000000e+000

 284	1.135999999999993e+001
	1.136010477173915e-011
	-1.136010477173915e-011
	0.000000000000000e+000

 285	1.139999999999993e+001
	1.140010477173917e-011
	-1.140010477173917e-011
	0.000000000000000e+000

 286	1.143999999999993e+001
	1.144010477173918e-011
	-1.144010477173918e-011
	0.000000000000000e+000

 287	1.147999999999993e+001
	1.148010477173919e-011
	-1.148010477173919e-011
	0.000000000000000e+000

 288	1.151999999999993e+001
	1.152010477173920e-011
	-1.152010477173920e-011
	0.000000000000000e+000

 289	1.155999999999993e+001
	1.156010477173921e-011
	-1.156010477173921e-011
	0.000000000000000e+000

 290	1.159999999999993e+001
	1.160010477173922e-011
	-1.160010477173922e-011
	0.000000000000000e+000

 291	1.163999999999993e+001
	1.164010477173924e-011
	-1.164010477173924e-011
	0.000000000000000e+000

 292	1.167999999999993e+001
	1.168010477173925e-011
	-1.168010477173925e-011