Title: ** 2nd order low pass filter with an opamp (lm741) -- simulation circuit **
Date: Mon Jun  1 19:47:50  2020
Plotname: AC Analysis
Flags: complex
No. Variables: 44
No. Points: 1025
Variables:
	0	frequency	frequency
	1	i(a$poly$e.xu1.eos)	current
	2	i(e.xu1.e1)	current
	3	i(e.xu1.eh)	current
	4	i(l.xu1.l2)	current
	5	i(l.xu1.l3)	current
	6	n_r1r2c1	voltage
	7	neg	voltage
	8	pos	voltage
	9	i(v.xu1.v2)	current
	10	i(v.xu1.v3)	current
	11	i(v.xu1.v4)	current
	12	i(v.xu1.v5)	current
	13	i(v.xu1.v6)	current
	14	i(v.xu1.v7)	current
	15	i(vc)	current
	16	vcc	voltage
	17	i(ve)	current
	18	vee	voltage
	19	vin	voltage
	20	vout	voltage
	21	vs	voltage
	22	i(vsource)	current
	23	xu1.3	voltage
	24	xu1.4	voltage
	25	xu1.5	voltage
	26	xu1.6	voltage
	27	xu1.7	voltage
	28	xu1.8	voltage
	29	xu1.9	voltage
	30	xu1.10	voltage
	31	xu1.15	voltage
	32	xu1.16	voltage
	33	xu1.17	voltage
	34	xu1.20	voltage
	35	xu1.21	voltage
	36	xu1.22	voltage
	37	xu1.23	voltage
	38	xu1.24	voltage
	39	xu1.25	voltage
	40	xu1.26	voltage
	41	xu1.27	voltage
	42	xu1.49	voltage
	43	xu1.98	voltage
Values:
 0	1.000000000000000e+00,0.000000000000000e+00
	-8.823762874620607e-12,-1.562593090147018e-12
	2.010059206694614e-05,-3.054991548852697e-09
	2.034817251023855e-12,-4.007992591809366e-16
	-3.162342175828700e-08,6.372430706751937e-12
	2.010059207428317e-05,-3.054991550091172e-09
	1.000000034823363e+00,-1.005216099172185e-04
	1.000026615247796e+00,-2.019690885579545e-04
	1.000000058899945e+00,-2.010559695802313e-04
	-1.013688699236405e-12,2.045149072941403e-16
	1.013688699236391e-12,-2.045149072941375e-16
	3.662007658774364e-15,-5.565707921497447e-19
	-3.662007421013656e-15,5.565707560136537e-19
	1.004288784470968e-05,-1.526369839726598e-09
	-1.005770422224904e-05,1.528621709125146e-09
	-1.005770324330629e-05,1.528621502484434e-09
	0.000000000000000e+00,0.000000000000000e+00
	-1.004288683102098e-05,1.526369635211691e-09
	0.000000000000000e+00,0.000000000000000e+00
	1.000000000344786e+00,-9.952634645269160e-07
	1.010026927643647e+00,-2.039921716022184e-04
	1.000000000000000e+00,0.000000000000000e+00
	3.447857277460997e-11,-9.952634645269160e-08
	1.000013337073871e+00,-2.015125290690929e-04
	1.000029148795619e+00,-2.014630111687664e-04
	2.528558716963225e-06,5.049764036984747e-07
	-2.527524686601890e-06,-5.049766120112254e-07
	1.000031682342944e+00,-2.009569338789827e-04
	0.000000000000000e+00,0.000000000000000e+00
	1.013688699221985e+00,-2.045149072912311e-04
	0.000000000000000e+00,0.000000000000000e+00
	1.013688691775315e+00,-2.045487053692341e-04
	3.162344299906297e-05,9.903570124856371e-08
	2.124077596496621e-11,1.054081319553156e-07
	1.010026927643647e+00,-2.039921715895887e-04
	1.010026927643647e+00,-2.039921715895887e-04
	1.010026927643647e+00,-2.039921715895887e-04
	1.013688691775315e+00,-2.045487053692341e-04
	1.013437619579197e+00,-2.045105461232409e-04
	1.013437249169759e+00,-2.045104898265060e-04
	1.010026927643647e+00,-2.039921715895887e-04
	1.010026927643647e+00,-2.039921715895887e-04
	0.000000000000000e+00,0.000000000000000e+00
	0.000000000000000e+00,0.000000000000000e+00

 1	9.865527343750000e+01,0.000000000000000e+00
	-1.188634091621032e-11,-1.541155048881556e-10
	2.019585956029857e-05,-3.033108625774333e-07
	2.034175353998074e-12,-4.045759752537271e-14
	-3.161412486261155e-08,6.285525302704427e-10
	2.019585956766758e-05,-3.033108627004123e-07
	9.999036089233386e-01,-9.916068412212603e-03
	9.997317305123420e-01,-1.992146552161139e-02
	9.997069604791227e-01,-1.983140613954932e-02
	-1.013408280391242e-12,2.017293666907582e-14
	1.013408280391228e-12,-2.017293666907555e-14
	3.679363878388323e-15,-5.525840721744967e-17
	-3.679363639500743e-15,5.525840362972605e-17
	1.009048648000291e-05,-1.515436443264682e-07
	-1.010537308030737e-05,1.517672182509041e-07
	-1.010537210159208e-05,1.517671987925206e-07
	0.000000000000000e+00,0.000000000000000e+00
	-1.009048546659463e-05,1.515436241535315e-07
	0.000000000000000e+00,0.000000000000000e+00
	9.999990456329043e-01,-9.817889517042180e-05
	1.009729087470653e+00,-2.012101445009289e-02
	1.000000000000000e+00,0.000000000000000e+00
	-9.543670956291272e-08,-9.817889517042182e-06
	9.997193454957323e-01,-1.987643583058035e-02
	9.997352559053363e-01,-1.987155209650199e-02
	3.520174763238515e-06,4.980479866768805e-05
	-3.519141036911755e-06,-4.980481921487354e-05
	9.997387812976379e-01,-1.982163868119666e-02
	0.000000000000000e+00,0.000000000000000e+00
	1.013408280376827e+00,-2.017293666878887e-02
	0.000000000000000e+00,0.000000000000000e+00
	1.013408206667748e+00,-2.017626918132009e-02
	3.182081851532467e-05,9.767458352655194e-06
	2.066936527131239e-07,1.039601088292564e-05
	1.009729087470672e+00,-2.012101444884101e-02
	1.009729087470672e+00,-2.012101444884101e-02
	1.009729087470672e+00,-2.012101444884101e-02
	1.013408206667748e+00,-2.017626918132009e-02
	1.013155944505748e+00,-2.017248059021193e-02
	1.013155572340740e+00,-2.017247500086383e-02
	1.009729087470672e+00,-2.012101444884101e-02
	1.009729087470672e+00,-2.012101444884101e-02
	0.000000000000000e+00,0.000000000000000e+00
	0.000000000000000e+00,0.000000000000000e+00

 2	1.963105468750000e+02,0.000000000000000e+00
	-2.094486244390673e-11,-3.064184262748671e-10
	2.047750403911391e-05,-6.148475996175726e-07
	2.032618849007057e-12,-8.046660148511799e-14
	-3.158662462332461e-08,1.250019461283169e-09
	2.047750404657502e-05,-6.148475998671898e-07
	9.996183019892215e-01,-1.972621663234242e-02
	9.988594609208579e-01,-3.961833740819689e-02
	9.988399745106069e-01,-3.943927643509228e-02
	-1.012578772535139e-12,4.012056757345274e-14
	1.012578772535125e-12,-4.012056757345219e-14
	3.730675015642126e-15,-1.120154377184208e-16
	-3.730674773423205e-15,1.120154304456723e-16
	1.023120491771288e-05,-3.071971941912016e-07
	-1.024629912140104e-05,3.076504054267234e-07
	-1.024629814370881e-05,3.076503667341824e-07
	0.000000000000000e+00,0.000000000000000e+00
	-1.023120390513410e-05,3.071971540706340e-07
	0.000000000000000e+00,0.000000000000000e+00
	9.999962208117744e-01,-1.953090755677467e-04
	1.008848075555814e+00,-4.001518540001388e-02
	1.000000000000000e+00,0.000000000000000e+00
	-3.779188225555563e-07,-1.953090755677467e-05
	9.988497177157324e-01,-3.952880692164459e-02
	9.988659200026495e-01,-3.951909759668309e-02
	6.453183560628517e-06,9.902361017843919e-05
	-6.452150733027295e-06,-9.902365104120028e-05
	9.988723790831722e-01,-3.941985780466212e-02
	0.000000000000000e+00,0.000000000000000e+00
	1.012578772520736e+00,-4.012056757288204e-02
	0.000000000000000e+00,0.000000000000000e+00
	1.012578502477979e+00,-4.012719338606985e-02
	3.240457256524163e-05,1.941863043016143e-05
	8.179479419170239e-07,2.066864989144459e-05
	1.008848075555890e+00,-4.001518539748807e-02
	1.008848075555890e+00,-4.001518539748807e-02
	1.008848075555890e+00,-4.001518539748807e-02
	1.012578502477979e+00,-4.012719338606985e-02
	1.012322722355036e+00,-4.011951345621507e-02
	1.012322344999944e+00,-4.011950212593419e-02
	1.008848075555890e+00,-4.001518539748807e-02
	1.008848075555890e+00,-4.001518539748807e-02
	0.000000000000000e+00,0.000000000000000e+00
	0.000000000000000e+00,0.000000000000000e+00

 3	2.939658203125000e+02,0.000000000000000e+00
	-3.598068648885371e-11,-4.582246362281256e-10
	2.094453531643892e-05,-9.487887346207660e-07
	2.030034787595418e-12,-1.203995303916980e-13
	-3.154097230550202e-08,1.870069256261326e-09
	2.094453532406358e-05,-9.487887350053800e-07
	9.991444118941404e-01,-2.952563140933057e-02
	9.974114329754588e-01,-5.927025210750385e-02
	9.974007167574582e-01,-5.900247699861040e-02
	-1.011201637616367e-12,6.002688287791884e-14
	1.011201637616353e-12,-6.002688287791802e-14
	3.815760674250683e-15,-1.728541926111861e-16
	-3.815760426507263e-15,1.728541813883965e-16
	1.046454842931061e-05,-4.740446857675197e-07
	-1.047998688712354e-05,4.747440488534903e-07
	-1.047998591111552e-05,4.747439909821624e-07
	0.000000000000000e+00,0.000000000000000e+00
	-1.046454741810897e-05,4.740446257406368e-07
	0.000000000000000e+00,0.000000000000000e+00
	9.999915288306350e-01,-2.923329842507977e-04
	1.007385534751818e+00,-5.986394852145605e-02
	1.000000000000000e+00,0.000000000000000e+00
	-8.471169365004139e-07,-2.923329842507977e-05
	9.974060748664585e-01,-5.913636455305712e-02
	9.974227615526723e-01,-5.912184677340175e-02
	1.132154270455654e-05,1.480814597571295e-04
	-1.132051136920609e-05,-1.480815208891387e-04
	9.974340901276606e-01,-5.897344146844965e-02
	0.000000000000000e+00,0.000000000000000e+00
	1.011201637601983e+00,-6.002688287706498e-02
	0.000000000000000e+00,0.000000000000000e+00
	1.011201041674411e+00,-6.003679121522509e-02
	3.337337020231666e-05,2.903553016075542e-05
	1.832397896814648e-06,3.090559941701674e-05
	1.007385534751994e+00,-5.986394851758751e-02
	1.007385534751994e+00,-5.986394851758751e-02
	1.007385534751994e+00,-5.986394851758751e-02
	1.011201041674411e+00,-6.003679121522509e-02
	1.010939427963678e+00,-6.002494009808090e-02
	1.010939042002233e+00,-6.002492261400377e-02
	1.007385534751994e+00,-5.986394851758751e-02
	1.007385534751994e+00,-5.986394851758751e-02
	0.000000000000000e+00,0.000000000000000e+00
	0.000000000000000e+00,0.000000000000000e+00

 4	3.916210937500000e+02,0.000000000000000e+00
	-5.696291173201319e-11,-6.092888707568728e-10
	2.159531263691561e-05,-1.316172660313034e-06
	2.026427293543061e-12,-1.602230452533020e-13
	-3.147725290155949e-08,2.488001855427910e-09
	2.159531264478100e-05,-1.316172660845821e-06
	9.984824329612904e-01,-3.930899573120237e-02
	9.953903432545766e-01,-7.885500096881559e-02
	9.953918659956206e-01,-7.849894112573001e-02
	-1.009279299675266e-12,7.987146752361860e-14
	1.009279299675252e-12,-7.987146752361751e-14
	3.934321934725768e-15,-2.397856912015676e-16
	-3.934321679284882e-15,2.397856756331641e-16
	1.078969724182827e-05,-6.576012471556231e-07
	-1.080561539508734e-05,6.585714131575738e-07
	-1.080561442141776e-05,6.585713361936077e-07
	0.000000000000000e+00,0.000000000000000e+00
	-1.078969623254897e-05,6.576011672841556e-07
	0.000000000000000e+00,0.000000000000000e+00
	9.999849745837751e-01,-3.891979775366571e-04
	1.005344188669481e+00,-7.964487254502001e-02
	1.000000000000000e+00,0.000000000000000e+00
	-1.502541622483422e-06,-3.891979775366572e-05
	9.953911046250986e-01,-7.867697104727281e-02
	9.954084671262395e-01,-7.865767040657343e-02
	1.811523565087292e-05,1.968988686033984e-04
	-1.811420639818984e-05,-1.968989499354507e-04
	9.954265909943423e-01,-7.846033988309122e-02
	0.000000000000000e+00,0.000000000000000e+00
	1.009279299660910e+00,-7.987146752248246e-02
	0.000000000000000e+00,0.000000000000000e+00
	1.009278248968258e+00,-7.988464228492376e-02
	3.472499872167567e-05,3.860124263880394e-05
	3.247745820116182e-06,4.108924449423185e-05
	1.005344188669805e+00,-7.964487253970620e-02
	1.005344188669805e+00,-7.964487253970620e-02
	1.005344188669805e+00,-7.964487253970620e-02
	1.009278248968258e+00,-7.988464228492376e-02
	1.009008506537212e+00,-7.986820225374486e-02
	1.009008108583381e+00,-7.986817799959484e-02
	1.005344188669805e+00,-7.964487253970620e-02
	1.005344188669805e+00,-7.964487253970620e-02
	0.000000000000000e+00,0.000000000000000e+00
	0.000000000000000e+00,0.000000000000000e+00

 5	4.892763671875000e+02,0.000000000000000e+00
	-8.384849935574610e-11,-7.593680382421789e-10
	2.242755237969601e-05,-1.727910902566895e-06
	2.021802152720291e-12,-1.998980276068840e-13
	-3.139558480790776e-08,3.103123026083342e-09
	2.242755238785873e-05,-1.727910903264383e-06
	9.976330547950096e-01,-4.907101924461042e-02
	9.927999481527661e-01,-9.835056023236068e-02
	9.928171538241342e-01,-9.790678575526474e-02
	-1.006815135817139e-12,9.963407003339130e-14
	1.006815135817125e-12,-9.963407003338993e-14
	4.085942757726089e-15,-3.147978396754262e-16
	-4.085942492440825e-15,3.147978192367722e-16
	1.120551038647465e-05,-8.633186197855389e-07
	-1.122204199321747e-05,8.645922827802723e-07
	-1.122204102255443e-05,8.645921868360634e-07
	0.000000000000000e+00,0.000000000000000e+00
	-1.120550937965951e-05,8.633185201514689e-07
	0.000000000000000e+00,0.000000000000000e+00
	9.999765648989605e-01,-4.858516756892120e-04
	1.002727831360104e+00,-9.933571294781107e-02
	1.000000000000000e+00,0.000000000000000e+00
	-2.343510103947066e-06,-4.858516756892121e-05
	9.928085509884501e-01,-9.812867299381270e-02
	9.928267791794987e-01,-9.810462346352314e-02
	2.682031154899178e-05,2.453970622126322e-04
	-2.681928496589547e-05,-2.453971636528149e-04
	9.928536102009611e-01,-9.785868674299289e-02
	0.000000000000000e+00,0.000000000000000e+00
	1.006815135802817e+00,-9.963407003197404e-02
	0.000000000000000e+00,0.000000000000000e+00
	1.006813502399154e+00,-9.965048984622626e-02
	3.645637682690658e-05,4.809901227185285e-05
	5.060792018998824e-06,5.120213529793619e-05
	1.002727831360635e+00,-9.933571294091639e-02
	1.002727831360635e+00,-9.933571294091639e-02
	1.002727831360635e+00,-9.933571294091639e-02
	1.006813502399154e+00,-9.965048984622626e-02
	1.006533364639493e+00,-9.962890688073162e-02
	1.006532951349324e+00,-9.962887503915677e-02
	1.002727831360635e+00,-9.933571294091639e-02
	1.002727831360635e+00,-9.933571294091639e-02
	0.000000000000000e+00,0.000000000000000e+00
	0.000000000000000e+00,0.000000000000000e+00

 6	5.869316406250000e+02,0.000000000000000e+00
	-1.165824437176185e-10,-9.082219235537507e-10
	2.343833868884149e-05,-2.194747123485975e-06
	2.016167016799237e-12,-2.393889913512258e-13
	-3.129611937568334e-08,3.714746252876547e-09
	2.343833869737806e-05,-2.194747124371897e-06
	9.965971606525494e-01,-5.880644698186894e-02
	9.896450496247580e-01,-1.177351510067438e-01
	9.896813505070033e-01,-1.172043710421790e-01
	-1.003813463753468e-12,1.192946556173413e-13
	1.003813463753454e-12,-1.192946556173397e-13
	4.270091920754693e-15,-3.998479621149668e-16
	-4.270091643513277e-15,3.998479361543243e-16
	1.171053100994636e-05,-1.096564675072290e-06
	-1.172780767889989e-05,1.098182448413415e-06
	-1.172780671188348e-05,1.098182333625953e-06
	0.000000000000000e+00,0.000000000000000e+00
	-1.171053000613290e-05,1.096564555777634e-06
	0.000000000000000e+00,0.000000000000000e+00
	9.999663085213124e-01,-5.822420493254351e-04
	9.995413129161987e-01,-1.189144725334611e-01
	1.000000000000000e+00,0.000000000000000e+00
	-3.369147868761968e-06,-5.822420493254351e-05
	9.896632000658807e-01,-1.174697610244614e-01
	9.896824818532384e-01,-1.174410048483842e-01
	3.741894058395534e-05,2.934981986532220e-04
	-3.741791725214716e-05,-2.934983200872515e-04
	9.897199140743660e-01,-1.171468587478013e-01
	0.000000000000000e+00,0.000000000000000e+00
	1.003813463739189e+00,-1.192946556156444e-01
	0.000000000000000e+00,0.000000000000000e+00
	1.003811120872456e+00,-1.193142938966503e-01
	3.856356736266104e-05,5.751229437766491e-05
	7.267447986977697e-06,6.122704063054145e-05
	9.995413129170084e-01,-1.189144725248176e-01
	9.995413129170084e-01,-1.189144725248176e-01
	9.995413129170084e-01,-1.189144725248176e-01
	1.003811120872456e+00,-1.193142938966503e-01
	1.003518357597207e+00,-1.192868797797735e-01
	1.003517925680484e+00,-1.192868393354400e-01
	9.995413129170084e-01,-1.189144725248176e-01
	9.995413129170084e-01,-1.189144725248176e-01
	0.000000000000000e+00,0.000000000000000e+00
	0.000000000000000e+00,0.000000000000000e+00

 7	6.845869140625000e+02,0.000000000000000e+00
	-1.550979897224195e-10,-1.055613877352916e-09
	2.462413700277805e-05,-2.727217084869289e-06
	2.009531362596271e-12,-2.786606078538282e-13
	-3.117904033836863e-08,4.322194589659610e-09
	2.462413701173942e-05,-2.727217085970520e-06
	9.953758253620717e-01,-6.851006797841540e-02
	9.859314770230542e-01,-1.369872980273152e-01
	9.859902469353703e-01,-1.363703587199644e-01
	-1.000279525927264e-12,1.388334582019601e-13
	1.000279525927250e-12,-1.388334582019582e-13
	4.486125482996029e-15,-4.968555064780745e-16
	-4.486125191728287e-15,4.968554742190655e-16
	1.230299313412665e-05,-1.362603410899350e-06
	-1.232114386865270e-05,1.364613673971566e-06
	-1.232114290594024e-05,1.364613540506216e-06
	0.000000000000000e+00,0.000000000000000e+00
	-1.230299213384712e-05,1.362603272065891e-06
	0.000000000000000e+00,0.000000000000000e+00
	9.999542160926937e-01,-6.783175047367861e-04
	9.957905211274510e-01,-1.383594607733170e-01
	1.000000000000000e+00,0.000000000000000e+00
	-4.578390730619608e-06,-6.783175047367861e-05
	9.859608619792122e-01,-1.366788283736398e-01
	9.859813828808778e-01,-1.366454159372326e-01
	4.988948445783237e-05,3.411255920403589e-04
	-4.988846495296295e-05,-3.411257333317402e-04
	9.860312887288986e-01,-1.363035339143031e-01
	0.000000000000000e+00,0.000000000000000e+00
	1.000279525913036e+00,-1.388334581999853e-01
	0.000000000000000e+00,0.000000000000000e+00
	1.000276348279868e+00,-1.388562832278240e-01
	4.104179352826767e-05,6.682480566130633e-05
	9.862753189899040e-06,7.114700025096594e-05
	9.957905211286238e-01,-1.383594607627251e-01
	9.957905211286238e-01,-1.383594607627251e-01
	9.957905211286238e-01,-1.383594607627251e-01
	1.000276348279868e+00,-1.388562832278240e-01
	9.999687734515152e-01,-1.388222181425515e-01
	9.999683196831523e-01,-1.388221678859747e-01
	9.957905211286238e-01,-1.383594607627251e-01
	9.957905211286238e-01,-1.383594607627251e-01
	0.000000000000000e+00,0.000000000000000e+00
	0.000000000000000e+00,0.000000000000000e+00

 8	7.822421875000000e+02,0.000000000000000e+00
	-1.993168954990224e-10,-1.201311487111574e-09
	2.598081038650973e-05,-3.335609815733644e-06
	2.001905451492033e-12,-3.176777382043372e-13
	-3.104456311993050e-08,4.924802463915402e-09
	2.598081039594895e-05,-3.335609817076699e-06
	9.939703127956816e-01,-7.817672375437724e-02
	9.816660651442289e-01,-1.560858869095442e-01
	9.817506328243700e-01,-1.553837689684818e-01
	-9.962194703191506e-13,1.582310311725819e-13
	9.962194703191371e-13,-1.582310311725797e-13
	4.733289760798715e-15,-6.076949699397059e-16
	-4.733289453483548e-15,6.076949304843165e-16
	1.298082981621108e-05,-1.666575549692047e-06
	-1.299998057028781e-05,1.669034266041868e-06
	-1.299997961252375e-05,1.669034114094582e-06
	0.000000000000000e+00,0.000000000000000e+00
	-1.298082881999161e-05,1.666575391461016e-06
	0.000000000000000e+00,0.000000000000000e+00
	9.999403001266899e-01,-7.740269678651212e-04
	9.914823593068230e-01,-1.576493516377086e-01
	1.000000000000000e+00,0.000000000000000e+00
	-5.969987331017057e-06,-7.740269678651213e-05
	9.817083489842995e-01,-1.557348279390130e-01
	9.817302917198398e-01,-1.556968176141471e-01
	6.420658156336412e-05,3.882039300797391e-04
	-6.420556645408970e-05,-3.882040910702933e-04
	9.817945182828350e-01,-1.553077483951716e-01
	0.000000000000000e+00,0.000000000000000e+00
	9.962194703049798e-01,-1.582310311703311e-01
	0.000000000000000e+00,0.000000000000000e+00
	9.962153343008424e-01,-1.582570061825663e-01
	4.388545846495800e-05,7.602057331024182e-05
	1.284089534502750e-05,8.094537577415723e-05
	9.914823593084624e-01,-1.576493516249391e-01
	9.914823593084624e-01,-1.576493516249391e-01
	9.914823593084624e-01,-1.576493516249391e-01
	9.962153343008424e-01,-1.582570061825663e-01
	9.958908135554371e-01,-1.582153417938240e-01
	9.958903347865853e-01,-1.582152803259153e-01
	9.914823593084624e-01,-1.576493516249391e-01
	9.914823593084624e-01,-1.576493516249391e-01
	0.000000000000000e+00,0.000000000000000e+00
	0.000000000000000e+00,0.000000000000000e+00

 9	8.798974609375000e+02,0.000000000000000e+00
	-2.491497386880205e-10,-1.345087226519279e-09
	2.750363855231336e-05,-4.029930183234269e-06
	1.993302202009517e-12,-3.564042435038304e-13
	-3.089293402778095e-08,5.521917425103448e-09
	2.750363856231723e-05,-4.029930184855483e-06
	9.923820729062860e-01,-8.780131663430957e-02
	9.768566286205050e-01,-1.750102196227629e-01
	9.769702712802603e-01,-1.742240355145379e-01
	-9.916403280559501e-13,1.774682965673588e-13
	9.916403280559364e-13,-1.774682965673564e-13
	5.010724792943536e-15,-7.341890799122759e-16
	-5.010724467615582e-15,7.341890322440746e-16
	1.374168265204541e-05,-2.013479837679284e-06
	-1.376195590027315e-05,2.016450345555636e-06
	-1.376195494805541e-05,2.016450175341654e-06
	0.000000000000000e+00,0.000000000000000e+00
	-1.374168166040508e-05,2.013479660210987e-06
	0.000000000000000e+00,0.000000000000000e+00
	9.999245749792701e-01,-8.693199666763323e-04
	9.866247204255473e-01,-1.767632396238233e-01
	1.000000000000000e+00,0.000000000000000e+00
	-7.542502072993562e-06,-8.693199666763324e-05
	9.769134499503827e-01,-1.746171275686504e-01
	9.769369940423193e-01,-1.745745855346383e-01
	8.034124629618944e-05,4.346594846043605e-04
	-8.034023614311714e-05,-4.346596651145368e-04
	9.770173594483478e-01,-1.741389515320815e-01
	0.000000000000000e+00,0.000000000000000e+00
	9.916403280418443e-01,-1.774682965648344e-01
	0.000000000000000e+00,0.000000000000000e+00
	9.916351120025979e-01,-1.774973798642350e-01
	4.708816808756027e-05,8.508398245646930e-05
	1.619523405977932e-05,9.060589988157275e-05
	9.866247204277752e-01,-1.767632396086177e-01
	9.866247204277752e-01,-1.767632396086177e-01
	9.866247204277752e-01,-1.767632396086177e-01
	9.916351120025979e-01,-1.774973798642350e-01
	9.912915699362967e-01,-1.774470428682930e-01
	9.912910631050912e-01,-1.774469686055961e-01
	9.866247204277752e-01,-1.767632396086177e-01
	9.866247204277752e-01,-1.767632396086177e-01
	0.000000000000000e+00,0.000000000000000e+00
	0.000000000000000e+00,0.000000000000000e+00

 10	9.775527343750000e+02,0.000000000000000e+00
	-3.044962643936577e-10,-1.486719080121430e-09
	2.918733943587520e-05,-4.819863080962258e-06
	1.983734925271489e-12,-3.948092538483031e-13
	-3.072442933560365e-08,6.112901828713088e-09
	2.918733944648768e-05,-4.819863082897898e-06
	9.906127383402012e-01,-9.737881788014402e-02
	9.715119328166670e-01,-1.937400679237274e-01
	9.716578698967788e-01,-1.928710587064527e-01
	-9.865499879510787e-13,1.965265925173175e-13
	9.865499879510651e-13,-1.965265925173148e-13
	5.317468271451756e-15,-8.781022697208010e-16
	-5.317467926208056e-15,8.781022127088768e-16
	1.458291255618640e-05,-2.408155152232175e-06
	-1.460442687969531e-05,2.411707928730408e-06
	-1.460442593365296e-05,2.411707740495551e-06
	0.000000000000000e+00,0.000000000000000e+00
	-1.458291156963641e-05,2.408154955705583e-06
	0.000000000000000e+00,0.000000000000000e+00
	9.999070568152495e-01,-9.641467116845942e-04
	9.812264577176338e-01,-1.956806937270251e-01
	1.000000000000000e+00,0.000000000000000e+00
	-9.294318475044916e-06,-9.641467116845942e-05
	9.715849013567229e-01,-1.933055633150901e-01
	9.716102227448817e-01,-1.932585633569172e-01
	9.826098187781795e-05,4.804203140774954e-04
	-9.825997723267310e-05,-4.804205139068846e-04
	9.717085126537900e-01,-1.927770588846848e-01
	0.000000000000000e+00,0.000000000000000e+00
	9.865499879370454e-01,-1.965265925145220e-01
	0.000000000000000e+00,0.000000000000000e+00
	9.865435723751830e-01,-1.965587375841551e-01
	5.064275701116540e-05,9.399982176790182e-05
	1.991832767556175e-05,1.001127235966149e-04
	9.812264577205946e-01,-1.956806937090978e-01
	9.812264577205946e-01,-1.956806937090978e-01
	9.812264577205946e-01,-1.956806937090978e-01
	9.865435723751830e-01,-1.965587375841551e-01
	9.861789995612783e-01,-1.964985337053493e-01
	9.861784617031908e-01,-1.964984448859369e-01
	9.812264577205946e-01,-1.956806937090978e-01
	9.812264577205946e-01,-1.956806937090978e-01
	0.000000000000000e+00,0.000000000000000e+00
	0.000000000000000e+00,0.000000000000000e+00

 11	1.075208007812500e+03,0.000000000000000e+00
	-3.652457725630379e-10,-1.625991140225966e-09
	3.102609317996025e-05,-5.714739417437414e-06
	1.973219229342311e-12,-4.328574363436217e-13
	-3.053935426166844e-08,6.697134448279634e-09
	3.102609319122977e-05,-5.714739419730997e-06
	9.886641206374138e-01,-1.069042756127114e-01
	9.656416614107267e-01,-2.122557245042407e-01
	9.658230485578683e-01,-2.113052563185555e-01
	-9.809571681405517e-13,2.153877186870637e-13
	9.809571681405384e-13,-2.153877186870607e-13
	5.652459911051192e-15,-1.041134482250512e-15
	-5.652459544057650e-15,1.041134414653488e-15
	1.550161174496308e-05,-2.855263508651598e-06
	-1.552448143500021e-05,2.859475908787335e-06
	-1.552448049573992e-05,2.859475702797226e-06
	0.000000000000000e+00,0.000000000000000e+00
	-1.550161076400591e-05,2.855263293263879e-06
	0.000000000000000e+00,0.000000000000000e+00
	9.998877635706674e-01,-1.058458174383281e-03
	9.752973519363395e-01,-2.143818091002754e-01
	1.000000000000000e+00,0.000000000000000e+00
	-1.122364293325295e-05,-1.058458174383281e-04
	9.657323549842975e-01,-2.117804904113981e-01
	9.657596256545850e-01,-2.117291136962063e-01
	1.179299059607120e-04,5.254164571046605e-04
	-1.179289073652279e-04,-5.254166760326057e-04
	9.658775898752724e-01,-2.112025029916096e-01
	0.000000000000000e+00,0.000000000000000e+00
	9.809571681265981e-01,-2.153877186839999e-01
	0.000000000000000e+00,0.000000000000000e+00
	9.809494359571147e-01,-2.154228743250997e-01
	5.454131740413679e-05,1.027533269459430e-04
	2.400196314246836e-05,1.094504613942227e-04
	9.752973519402001e-01,-2.143818090793149e-01
	9.752973519402001e-01,-2.143818090793149e-01
	9.752973519402001e-01,-2.143818090793149e-01
	9.809494359571147e-01,-2.154228743250997e-01
	9.805618956634905e-01,-2.153514927373834e-01
	9.805613239212398e-01,-2.153513874273800e-01
	9.752973519402001e-01,-2.143818090793149e-01
	9.752973519402001e-01,-2.143818090793149e-01
	0.000000000000000e+00,0.000000000000000e+00
	0.000000000000000e+00,0.000000000000000e+00

 12	1.172863281250000e+03,0.000000000000000e+00
	-4.312775423942376e-10,-1.762694173327557e-09
	3.301356835865715e-05,-6.723504083596191e-06
	1.961771894791700e-12,-4.705178260063333e-13
	-3.033804184892298e-08,7.274012008189121e-09
	3.301356837063830e-05,-6.723504086288895e-06
	9.865382060344975e-01,-1.163728224987435e-01
	9.592563808579133e-01,-2.305380516252000e-01
	9.594763041449633e-01,-2.295076118595507e-01
	-9.748713849754658e-13,2.340339795566054e-13
	9.748713849754525e-13,-2.340339795566022e-13
	6.014546226805430e-15,-1.224915334130984e-15
	-6.014545836303278e-15,1.224915254601738e-15
	1.649461683890735e-05,-3.359274055712781e-06
	-1.651895151975153e-05,3.364230027883084e-06
	-1.651895058785840e-05,3.364229804432887e-06
	0.000000000000000e+00,0.000000000000000e+00
	-1.649461586403597e-05,3.359273821678802e-06
	0.000000000000000e+00,0.000000000000000e+00
	9.998667149112327e-01,-1.152206163353896e-03
	9.688480754611899e-01,-2.328472561749140e-01
	1.000000000000000e+00,0.000000000000000e+00
	-1.332850887672543e-05,-1.152206163353896e-04
	9.593663425014383e-01,-2.300228317423753e-01
	9.593957301304148e-01,-2.299671665753468e-01
	1.393088882407634e-04,5.695801160590930e-04
	-1.393078962253491e-04,-5.695803538451616e-04
	9.595350793755449e-01,-2.293962816376278e-01
	0.000000000000000e+00,0.000000000000000e+00
	9.748713849615986e-01,-2.340339795532764e-01
	0.000000000000000e+00,0.000000000000000e+00
	9.748622217197180e-01,-2.340720900266433e-01
	5.877523058156729e-05,1.113302219228819e-04
	2.843718873264431e-05,1.186042339310711e-04
	9.688480754661447e-01,-2.328472561505853e-01
	9.688480754661447e-01,-2.328472561505853e-01
	9.688480754661447e-01,-2.328472561505853e-01
	9.748622217197180e-01,-2.340720900266433e-01
	9.744498562987453e-01,-2.339881081752505e-01
	9.744492479317244e-01,-2.339879842759462e-01
	9.688480754661447e-01,-2.328472561505853e-01
	9.688480754661447e-01,-2.328472561505853e-01
	0.000000000000000e+00,0.000000000000000e+00
	0.000000000000000e+00,0.000000000000000e+00

 13	1.270518554687500e+03,0.000000000000000e+00
	-5.024612910971228e-10,-1.896626153532174e-09
	3.514295026695036e-05,-7.854686060387167e-06
	1.949410815402426e-12,-5.077585320195042e-13
	-3.012085175363234e-08,7.842950630672122e-09
	3.514295027968546e-05,-7.854686063532045e-06
	9.842371508858380e-01,-1.257796831807700e-01
	9.523675019528568e-01,-2.485685270276306e-01
	9.526289723621894e-01,-2.474597201767535e-01
	-9.683029193628925e-13,2.524482253317720e-13
	9.683029193628791e-13,-2.524482253317685e-13
	6.402485688022372e-15,-1.430998669820163e-15
	-6.402485272332610e-15,1.430998576910676e-15
	1.755852299710524e-05,-3.924448140488570e-06
	-1.758442726983861e-05,3.930237919900874e-06
	-1.758442634589309e-05,3.930237679300383e-06
	0.000000000000000e+00,0.000000000000000e+00
	-1.755852202880232e-05,3.924447888040345e-06
	0.000000000000000e+00,0.000000000000000e+00
	9.998439321869885e-01,-1.245343397829406e-03
	9.618901534753531e-01,-2.510583270335891e-01
	1.000000000000000e+00,0.000000000000000e+00
	-1.560678130115012e-05,-1.245343397829406e-04
	9.524982371575230e-01,-2.480141236021920e-01
	9.525299047740416e-01,-2.479542651630796e-01
	1.623556992061959e-04,6.128458300073414e-04
	-1.623547142902138e-04,-6.128460863920465e-04
	9.526923075633269e-01,-2.473400034191829e-01
	0.000000000000000e+00,0.000000000000000e+00
	9.683029193491187e-01,-2.524482253281810e-01
	0.000000000000000e+00,0.000000000000000e+00
	9.682922133980583e-01,-2.524892305125377e-01
	6.333520113751625e-05,1.197167575705743e-04
	3.321434938388390e-05,1.275597082012464e-04
	9.618901534816233e-01,-2.510583270055348e-01
	9.618901534816233e-01,-2.510583270055348e-01
	9.618901534816233e-01,-2.510583270055348e-01
	9.682922133980583e-01,-2.524892305125377e-01
	9.678532503231305e-01,-2.523911193090255e-01
	9.678526027163125e-01,-2.523909745645402e-01
	9.618901534816233e-01,-2.510583270055348e-01
	9.618901534816233e-01,-2.510583270055348e-01
	0.000000000000000e+00,0.000000000000000e+00
	0.000000000000000e+00,0.000000000000000e+00

 14	1.368173828125000e+03,0.000000000000000e+00
	-5.786576641993767e-10,-2.027592760715964e-09
	3.740697108270408e-05,-9.116370802629906e-06
	1.936155433968759e-12,-5.445495376265961e-13
	-2.988816894981996e-08,8.403387191018953e-09
	3.740697109625923e-05,-9.116370806276267e-06
	9.817632767198653e-01,-1.351201814286397e-01
	9.449872387201430e-01,-2.663292869313614e-01
	9.452931869080362e-01,-2.651438301681531e-01
	-9.612627807497769e-13,2.706138903333029e-13
	9.612627807497638e-13,-2.706138903332991e-13
	6.814954213294410e-15,-1.660857530378254e-15
	-6.814953770824474e-15,1.660857422544931e-15
	1.868969898709922e-05,-4.554825510444871e-06